<?xml version="1.0"?>
<VTKFile type="UnstructuredGrid" version="0.1" byte_order="LittleEndian" header_type="UInt32" compressor="vtkZLibDataCompressor">
  <UnstructuredGrid>
    <Piece NumberOfPoints="1142" NumberOfCells="1142">
      <PointData>
        <DataArray type="Int32" Name="id" format="ascii" RangeMin="1" RangeMax="1142">
          8 6 5 11 12 13
          21 22 23 32 33 34
          44 45 46 47 48 49
          57 58 67 68 78 79
          80 81 82 83 94 95
          96 97 98 99 113 114
          115 116 117 118 138 139
          140 141 142 143 144 145
          160 161 162 163 164 165
          166 167 168 189 190 191
          192 193 194 195 196 229
          230 231 232 233 234 235
          236 237 238 239 240 241
          242 243 274 275 276 277
          278 279 280 281 282 283
          284 285 286 287 313 314
          315 316 317 318 319 320
          321 322 323 324 371 372
          373 374 375 376 377 378
          379 380 381 382 383 384
          385 386 447 448 449 450
          451 452 453 454 455 456
          457 458 459 460 461 462
          463 464 465 466 467 510
          511 512 513 514 515 516
          517 518 519 520 521 522
          523 524 525 526 527 528
          529 530 531 580 581 582
          583 584 585 586 587 588
          589 590 591 592 593 594
          595 596 597 598 599 600
          601 602 603 604 605 606
          607 608 609 610 679 680
          681 682 683 684 685 686
          687 688 689 690 691 692
          693 694 695 696 697 698
          699 700 701 702 703 704
          705 791 792 793 794 795
          796 797 798 799 800 801
          802 803 804 805 806 807
          808 809 810 895 896 897
          898 899 900 901 902 903
          904 905 906 907 908 909
          910 911 912 913 914 915
          916 1001 1002 1003 1004 1005
          1006 1007 1008 1009 1010 1011
          1012 1013 1014 1015 1016 1017
          1018 1019 1020 1021 1022 1023
          1024 1025 1026 1027 1028 1029
          1030 1031 1032 1033 1034 1035
          1036 1037 1038 1039 1040 1041
          1042 1043 1044 1045 1046 1047
          1048 1049 9 4 3 7
          14 15 16 17 24 25
          26 30 31 35 36 37
          41 50 51 52 53 54
          59 60 61 62 63 69
          70 71 72 84 85 86
          87 88 89 100 101 102
          103 104 105 106 107 119
          120 121 122 123 124 125
          126 127 128 129 130 146
          147 148 149 150 151 169
          170 171 172 173 174 175
          176 177 178 179 197 198
          199 200 201 202 203 204
          205 206 207 208 209 210
          211 212 213 214 215 216
          244 245 246 247 248 249
          250 251 252 253 254 255
          256 257 258 259 260 261
          288 289 290 291 292 293
          294 295 296 297 298 299
          300 301 325 326 327 328
          329 330 331 332 333 334
          335 336 337 338 339 340
          341 342 343 344 345 346
          347 387 388 389 390 391
          392 393 394 395 396 397
          398 399 400 401 402 403
          404 405 406 407 408 409
          410 411 412 413 414 415
          416 417 418 419 420 421
          422 423 468 469 470 471
          472 473 474 475 476 477
          478 479 480 481 482 483
          484 485 486 487 488 489
          490 491 492 493 494 495
          496 532 533 534 535 536
          537 538 539 540 541 542
          543 544 545 546 547 548
          549 550 551 552 553 554
          555 556 557 558 559 611
          612 613 614 615 616 617
          618 619 620 621 622 623
          624 625 626 627 628 629
          630 631 632 633 634 635
          636 637 638 639 640 641
          642 643 644 645 706 707
          708 709 710 711 712 713
          714 715 716 717 718 719
          720 721 722 723 724 725
          726 727 728 729 730 731
          732 733 734 735 736 737
          738 739 740 741 742 743
          744 745 746 747 748 749
          750 751 752 753 754 811
          812 813 814 815 816 817
          818 819 820 821 822 823
          824 825 826 827 828 829
          830 831 832 833 834 835
          836 837 838 839 840 841
          842 843 844 845 846 847
          848 849 850 851 852 853
          854 855 856 857 858 917
          918 919 920 921 922 923
          924 925 926 927 928 929
          930 931 932 933 934 935
          936 937 938 939 940 941
          942 943 944 945 946 947
          948 949 950 951 952 953
          954 955 956 957 958 959
          960 961 962 963 964 965
          966 967 968 969 970 1050
          1051 1052 1053 1054 1055 1056
          1057 1058 1059 1060 1061 1062
          1063 1064 1065 1066 1067 1068
          1069 1070 1071 1072 1073 1074
          1075 1076 1077 1078 1079 1080
          1081 1082 1083 1084 1085 1086
          1087 1088 1089 1090 1091 1092
          1093 1094 1095 1096 1097 1098
          1099 1100 1101 1102 1103 1104
          10 1 18 19 27 28
          38 39 42 55 56 64
          73 74 75 76 77 90
          108 109 110 111 112 131
          132 133 152 153 154 155
          156 157 180 181 182 183
          184 185 217 218 219 220
          221 222 223 224 262 263
          264 265 266 267 268 302
          303 304 305 306 307 308
          348 349 350 351 352 353
          354 355 356 357 358 359
          360 361 362 363 424 425
          426 427 428 429 430 431
          432 433 434 435 436 437
          497 498 499 500 501 502
          503 560 561 562 563 564
          565 566 567 568 569 570
          571 572 573 574 646 647
          648 649 650 651 652 653
          654 655 656 657 658 659
          660 661 662 663 664 665
          666 755 756 757 758 759
          760 761 762 763 764 765
          766 767 768 769 770 771
          772 773 774 859 860 861
          862 863 864 865 866 867
          868 869 870 871 872 873
          874 875 876 877 878 879
          880 881 971 972 973 974
          975 976 977 978 979 980
          981 982 983 984 985 986
          987 988 989 990 991 992
          1105 1106 1107 1108 1109 1110
          1111 1112 1113 1114 1115 1116
          1117 1118 1119 1120 1121 1122
          1123 1124 1125 1126 1127 1128
          1129 2 20 29 40 43
          65 66 91 92 93 134
          135 136 137 158 159 186
          187 188 225 226 227 228
          269 270 271 272 273 309
          310 311 312 364 365 366
          367 368 369 370 438 439
          440 441 442 443 444 445
          446 504 505 506 507 508
          509 575 576 577 578 579
          667 668 669 670 671 672
          673 674 675 676 677 678
          775 776 777 778 779 780
          781 782 783 784 785 786
          787 788 789 790 882 883
          884 885 886 887 888 889
          890 891 892 893 894 993
          994 995 996 997 998 999
          1000 1130 1131 1132 1133 1134
          1135 1136 1137 1138 1139 1140
          1141 1142
        </DataArray>
        <DataArray type="Int32" Name="type" format="ascii" RangeMin="1" RangeMax="1">
          1 1 1 1 1 1
          1 1 1 1 1 1
          1 1 1 1 1 1
          1 1 1 1 1 1
          1 1 1 1 1 1
          1 1 1 1 1 1
          1 1 1 1 1 1
          1 1 1 1 1 1
          1 1 1 1 1 1
          1 1 1 1 1 1
          1 1 1 1 1 1
          1 1 1 1 1 1
          1 1 1 1 1 1
          1 1 1 1 1 1
          1 1 1 1 1 1
          1 1 1 1 1 1
          1 1 1 1 1 1
          1 1 1 1 1 1
          1 1 1 1 1 1
          1 1 1 1 1 1
          1 1 1 1 1 1
          1 1 1 1 1 1
          1 1 1 1 1 1
          1 1 1 1 1 1
          1 1 1 1 1 1
          1 1 1 1 1 1
          1 1 1 1 1 1
          1 1 1 1 1 1
          1 1 1 1 1 1
          1 1 1 1 1 1
          1 1 1 1 1 1
          1 1 1 1 1 1
          1 1 1 1 1 1
          1 1 1 1 1 1
          1 1 1 1 1 1
          1 1 1 1 1 1
          1 1 1 1 1 1
          1 1 1 1 1 1
          1 1 1 1 1 1
          1 1 1 1 1 1
          1 1 1 1 1 1
          1 1 1 1 1 1
          1 1 1 1 1 1
          1 1 1 1 1 1
          1 1 1 1 1 1
          1 1 1 1 1 1
          1 1 1 1 1 1
          1 1 1 1 1 1
          1 1 1 1 1 1
          1 1 1 1 1 1
          1 1 1 1 1 1
          1 1 1 1 1 1
          1 1 1 1 1 1
          1 1 1 1 1 1
          1 1 1 1 1 1
          1 1 1 1 1 1
          1 1 1 1 1 1
          1 1 1 1 1 1
          1 1 1 1 1 1
          1 1 1 1 1 1
          1 1 1 1 1 1
          1 1 1 1 1 1
          1 1 1 1 1 1
          1 1 1 1 1 1
          1 1 1 1 1 1
          1 1 1 1 1 1
          1 1 1 1 1 1
          1 1 1 1 1 1
          1 1 1 1 1 1
          1 1 1 1 1 1
          1 1 1 1 1 1
          1 1 1 1 1 1
          1 1 1 1 1 1
          1 1 1 1 1 1
          1 1 1 1 1 1
          1 1 1 1 1 1
          1 1 1 1 1 1
          1 1 1 1 1 1
          1 1 1 1 1 1
          1 1 1 1 1 1
          1 1 1 1 1 1
          1 1 1 1 1 1
          1 1 1 1 1 1
          1 1 1 1 1 1
          1 1 1 1 1 1
          1 1 1 1 1 1
          1 1 1 1 1 1
          1 1 1 1 1 1
          1 1 1 1 1 1
          1 1 1 1 1 1
          1 1 1 1 1 1
          1 1 1 1 1 1
          1 1 1 1 1 1
          1 1 1 1 1 1
          1 1 1 1 1 1
          1 1 1 1 1 1
          1 1 1 1 1 1
          1 1 1 1 1 1
          1 1 1 1 1 1
          1 1 1 1 1 1
          1 1 1 1 1 1
          1 1 1 1 1 1
          1 1 1 1 1 1
          1 1 1 1 1 1
          1 1 1 1 1 1
          1 1 1 1 1 1
          1 1 1 1 1 1
          1 1 1 1 1 1
          1 1 1 1 1 1
          1 1 1 1 1 1
          1 1 1 1 1 1
          1 1 1 1 1 1
          1 1 1 1 1 1
          1 1 1 1 1 1
          1 1 1 1 1 1
          1 1 1 1 1 1
          1 1 1 1 1 1
          1 1 1 1 1 1
          1 1 1 1 1 1
          1 1 1 1 1 1
          1 1 1 1 1 1
          1 1 1 1 1 1
          1 1 1 1 1 1
          1 1 1 1 1 1
          1 1 1 1 1 1
          1 1 1 1 1 1
          1 1 1 1 1 1
          1 1 1 1 1 1
          1 1 1 1 1 1
          1 1 1 1 1 1
          1 1 1 1 1 1
          1 1 1 1 1 1
          1 1 1 1 1 1
          1 1 1 1 1 1
          1 1 1 1 1 1
          1 1 1 1 1 1
          1 1 1 1 1 1
          1 1 1 1 1 1
          1 1 1 1 1 1
          1 1 1 1 1 1
          1 1 1 1 1 1
          1 1 1 1 1 1
          1 1 1 1 1 1
          1 1 1 1 1 1
          1 1 1 1 1 1
          1 1 1 1 1 1
          1 1 1 1 1 1
          1 1 1 1 1 1
          1 1 1 1 1 1
          1 1 1 1 1 1
          1 1 1 1 1 1
          1 1 1 1 1 1
          1 1 1 1 1 1
          1 1 1 1 1 1
          1 1 1 1 1 1
          1 1 1 1 1 1
          1 1 1 1 1 1
          1 1 1 1 1 1
          1 1 1 1 1 1
          1 1 1 1 1 1
          1 1 1 1 1 1
          1 1 1 1 1 1
          1 1 1 1 1 1
          1 1 1 1 1 1
          1 1 1 1 1 1
          1 1 1 1 1 1
          1 1 1 1 1 1
          1 1 1 1 1 1
          1 1 1 1 1 1
          1 1 1 1 1 1
          1 1 1 1 1 1
          1 1 1 1 1 1
          1 1 1 1 1 1
          1 1 1 1 1 1
          1 1 1 1 1 1
          1 1 1 1 1 1
          1 1 1 1 1 1
          1 1 1 1 1 1
          1 1 1 1 1 1
          1 1 1 1 1 1
          1 1 1 1 1 1
          1 1 1 1 1 1
          1 1 1 1 1 1
          1 1 1 1 1 1
          1 1 1 1 1 1
          1 1 1 1 1 1
          1 1 1 1 1 1
          1 1 1 1 1 1
          1 1 1 1 1 1
          1 1 1 1 1 1
          1 1
        </DataArray>
        <DataArray type="Float64" Name="diameter" format="ascii" RangeMin="1.0045197654e-06" RangeMax="1.3598205526e-06">
          1.1158303044e-06 1.3289098181e-06 1.2938961761e-06 1.1099156775e-06 1.2715068923e-06 1.1436036181e-06
          1.2267198274e-06 1.2315029558e-06 1.3233520174e-06 1.1607263456e-06 1.1755449504e-06 1.1200186115e-06
          1.1466779054e-06 1.3505729115e-06 1.0300560315e-06 1.2269000295e-06 1.1091159026e-06 1.0918719607e-06
          1.2014003633e-06 1.2583940572e-06 1.0672856344e-06 1.2513690183e-06 1.158839965e-06 1.1513724319e-06
          1.1494861705e-06 1.1527686469e-06 1.1510320796e-06 1.0771685622e-06 1.3116935821e-06 1.3495229122e-06
          1.2913115383e-06 1.3100542696e-06 1.1730703167e-06 1.0248941525e-06 1.2045330056e-06 1.1629221495e-06
          1.2493210084e-06 1.1045862304e-06 1.0554296757e-06 1.1878307536e-06 1.3163424063e-06 1.2669320586e-06
          1.3023449056e-06 1.0572317907e-06 1.2750293957e-06 1.2526431444e-06 1.1491520624e-06 1.2120177745e-06
          1.0843192115e-06 1.3371768784e-06 1.3403295591e-06 1.0762477538e-06 1.2255740823e-06 1.2098607554e-06
          1.258386447e-06 1.1446469647e-06 1.1363920412e-06 1.1495657711e-06 1.2966405383e-06 1.1975272436e-06
          1.0854188679e-06 1.0616108481e-06 1.0820412144e-06 1.0837234811e-06 1.335177469e-06 1.1306925489e-06
          1.3276128748e-06 1.2127508849e-06 1.0690452389e-06 1.1920366877e-06 1.3391349838e-06 1.1355386646e-06
          1.3498461519e-06 1.3592922264e-06 1.0486790059e-06 1.3015426789e-06 1.1381149666e-06 1.3039616195e-06
          1.3153419116e-06 1.0525947895e-06 1.1537925932e-06 1.1882601693e-06 1.3341605332e-06 1.131092378e-06
          1.2614307019e-06 1.1700343244e-06 1.1499820602e-06 1.3256009114e-06 1.3012386711e-06 1.2757661994e-06
          1.3127447746e-06 1.3013203421e-06 1.1776961499e-06 1.2071531492e-06 1.2371026063e-06 1.2519263185e-06
          1.1960959304e-06 1.0664969822e-06 1.2172477126e-06 1.0939682083e-06 1.2843415116e-06 1.1624181033e-06
          1.1163256507e-06 1.1909242479e-06 1.2941513669e-06 1.0847892791e-06 1.1664153862e-06 1.2158929754e-06
          1.3037512696e-06 1.1998178874e-06 1.0800225617e-06 1.3449320935e-06 1.0672331303e-06 1.2889702484e-06
          1.2235391253e-06 1.1207735582e-06 1.2247542192e-06 1.2597499187e-06 1.1689709405e-06 1.1645304509e-06
          1.3082438849e-06 1.2609547338e-06 1.251086338e-06 1.1084823417e-06 1.0841520329e-06 1.3121001527e-06
          1.0280005389e-06 1.2772701906e-06 1.1756072845e-06 1.3211127385e-06 1.1354167035e-06 1.0956639721e-06
          1.2329756275e-06 1.1258999228e-06 1.2976076276e-06 1.0278398711e-06 1.2106649658e-06 1.096758334e-06
          1.3070815843e-06 1.336759509e-06 1.3145917205e-06 1.1143571538e-06 1.2987905775e-06 1.1502730887e-06
          1.3021139314e-06 1.2284932069e-06 1.1361796983e-06 1.2450482706e-06 1.1906392131e-06 1.2494132066e-06
          1.2509328452e-06 1.2441000683e-06 1.3249524722e-06 1.3031298088e-06 1.3554907741e-06 1.2214976242e-06
          1.2933042284e-06 1.2487443293e-06 1.3290231628e-06 1.0644457068e-06 1.2491361813e-06 1.034837634e-06
          1.341641616e-06 1.3015936513e-06 1.1345466343e-06 1.3392472014e-06 1.0959217535e-06 1.089502523e-06
          1.310769164e-06 1.1623175439e-06 1.2890808847e-06 1.2045571608e-06 1.3080381218e-06 1.3284365907e-06
          1.3482127004e-06 1.0912388634e-06 1.2927685196e-06 1.3476768791e-06 1.2705290028e-06 1.2871028676e-06
          1.2855965662e-06 1.2606913492e-06 1.2213444117e-06 1.1882154124e-06 1.1988847897e-06 1.2701867255e-06
          1.2527024131e-06 1.0839490631e-06 1.2266045817e-06 1.3362904937e-06 1.2808660944e-06 1.3022516967e-06
          1.1952133065e-06 1.2006061613e-06 1.1266972898e-06 1.3588408409e-06 1.2348794627e-06 1.1827082404e-06
          1.284002372e-06 1.3486427456e-06 1.2279608056e-06 1.2899686489e-06 1.3180022322e-06 1.1436377935e-06
          1.2898651481e-06 1.2259356566e-06 1.228242516e-06 1.3012328866e-06 1.2417638237e-06 1.1457631723e-06
          1.1882472889e-06 1.2420141443e-06 1.3091777838e-06 1.3432313527e-06 1.2918445839e-06 1.2657268213e-06
          1.2895972834e-06 1.2679987291e-06 1.1218198694e-06 1.282466034e-06 1.2170760746e-06 1.2055827315e-06
          1.2766105604e-06 1.1674997933e-06 1.1465454345e-06 1.3147724755e-06 1.1613603078e-06 1.2203427996e-06
          1.2376579737e-06 1.1468848602e-06 1.2756651619e-06 1.2352793926e-06 1.1950009679e-06 1.196937418e-06
          1.135245641e-06 1.2450878809e-06 1.2889006863e-06 1.1017532575e-06 1.151419542e-06 1.2501028633e-06
          1.1927579304e-06 1.2335976293e-06 1.1223826826e-06 1.2358731419e-06 1.1240849378e-06 1.0784161158e-06
          1.1016829645e-06 1.1909329733e-06 1.1117050546e-06 1.1599197528e-06 1.1106932659e-06 1.0954734452e-06
          1.2177683448e-06 1.0551336305e-06 1.1099337623e-06 1.1462263195e-06 1.0601958636e-06 1.1883093192e-06
          1.1850080649e-06 1.1608266233e-06 1.1545782248e-06 1.21417119e-06 1.0880274882e-06 1.2430867607e-06
          1.1953347591e-06 1.1183492623e-06 1.0624304722e-06 1.0045197654e-06 1.1461378028e-06 1.12339501e-06
          1.0923819296e-06 1.0182297644e-06 1.0395983512e-06 1.1281154311e-06 1.0570008575e-06 1.1675293649e-06
          1.0384740129e-06 1.1122122698e-06 1.1054286771e-06 1.1265089653e-06 1.1081985725e-06 1.0106359659e-06
          1.0562093423e-06 1.1422288772e-06 1.1087140006e-06 1.0974513184e-06 1.1011138438e-06 1.1371865462e-06
          1.0728280972e-06 1.1343925132e-06 1.1629644931e-06 1.0754280539e-06 1.0748252512e-06 1.1142564812e-06
          1.1619038014e-06 1.1421305437e-06 1.1072513738e-06 1.0298872235e-06 1.1362284899e-06 1.1737139303e-06
          1.0409954448e-06 1.0969964304e-06 1.1736782494e-06 1.072453847e-06 1.0474388507e-06 1.1269427591e-06
          1.1288506042e-06 1.13938153e-06 1.0321659905e-06 1.0917823068e-06 1.165642e-06 1.0606607743e-06
          1.0337224653e-06 1.0348020587e-06 1.0621890651e-06 1.2852414901e-06 1.0235866681e-06 1.0520301489e-06
          1.2645415038e-06 1.2357940377e-06 1.3154807275e-06 1.2068912563e-06 1.1284119453e-06 1.1086325356e-06
          1.2842976043e-06 1.3265520225e-06 1.1767708458e-06 1.3108853542e-06 1.2283156486e-06 1.2603922865e-06
          1.1537121323e-06 1.1346106939e-06 1.3092041281e-06 1.2095874581e-06 1.2191525467e-06 1.3218039107e-06
          1.1567789422e-06 1.2831332459e-06 1.1508582983e-06 1.1718164462e-06 1.196519325e-06 1.1171246471e-06
          1.0527784608e-06 1.2043599191e-06 1.3598205526e-06 1.2582014491e-06 1.1720256088e-06 1.2207424184e-06
          1.2027556829e-06 1.1441786817e-06 1.1645165009e-06 1.0238221096e-06 1.2650575019e-06 1.2864688272e-06
          1.0814724856e-06 1.3079944401e-06 1.3365736813e-06 1.1399253964e-06 1.1794092963e-06 1.3314382551e-06
          1.2162605464e-06 1.3250144241e-06 1.2453651459e-06 1.1847147613e-06 1.2017196255e-06 1.0842059734e-06
          1.179539899e-06 1.1226785031e-06 1.2960331175e-06 1.2644536564e-06 1.1996199185e-06 1.3194180763e-06
          1.0423249892e-06 1.1942858907e-06 1.1209306046e-06 1.2410153911e-06 1.0457503784e-06 1.1654642053e-06
          1.2850026381e-06 1.157164937e-06 1.2033343372e-06 1.2809959774e-06 1.180759183e-06 1.1639725673e-06
          1.1527945059e-06 1.2190789837e-06 1.2390792982e-06 1.1906504524e-06 1.3014507341e-06 1.1813006825e-06
          1.0930344348e-06 1.2722224421e-06 1.1661701403e-06 1.1785176516e-06 1.3303815194e-06 1.3213393127e-06
          1.1346543894e-06 1.1337219085e-06 1.1573342864e-06 1.0994464451e-06 1.0609678323e-06 1.2075379889e-06
          1.2433479905e-06 1.114271391e-06 1.263006617e-06 1.1858235971e-06 1.1526961075e-06 1.0801096942e-06
          1.1087216373e-06 1.3337088786e-06 1.1731426319e-06 1.2804172967e-06 1.2806016428e-06 1.1646227712e-06
          1.0698254404e-06 1.3190412058e-06 1.2971080208e-06 1.2927158483e-06 1.0878619633e-06 1.0452441075e-06
          1.18853769e-06 1.2561349733e-06 1.2271684923e-06 1.108189849e-06 1.154048778e-06 1.2834025886e-06
          1.2020468295e-06 1.2787886086e-06 1.2511024298e-06 1.1883846569e-06 1.0993576103e-06 1.1618587571e-06
          1.2235382019e-06 1.3535470967e-06 1.0700800139e-06 1.160471232e-06 1.1026969932e-06 1.097835223e-06
          1.168571108e-06 1.2905445587e-06 1.1918203004e-06 1.2227536738e-06 1.0675163201e-06 1.2795693997e-06
          1.313142372e-06 1.1332627622e-06 1.300016791e-06 1.2000016756e-06 1.1064035181e-06 1.3297838203e-06
          1.2665379372e-06 1.1424909343e-06 1.3585048321e-06 1.1339032372e-06 1.2623446783e-06 1.0943650433e-06
          1.0813457803e-06 1.3510926351e-06 1.3488109907e-06 1.3593076562e-06 1.1570472761e-06 1.2451854916e-06
          1.2388571162e-06 1.2116926879e-06 1.2501988806e-06 1.1579912514e-06 1.1415720492e-06 1.3221994654e-06
          1.0875531759e-06 1.2164805328e-06 1.1845124462e-06 1.1969081014e-06 1.3560124727e-06 1.1227571231e-06
          1.2548673127e-06 1.0728625392e-06 1.2376962965e-06 1.2164547484e-06 1.1712197203e-06 1.2710921386e-06
          1.1193091546e-06 1.2459697827e-06 1.0774307533e-06 1.3432718754e-06 1.1478682872e-06 1.1543164052e-06
          1.1421770586e-06 1.2829090428e-06 1.2888897361e-06 1.2267629419e-06 1.2448094232e-06 1.2499807959e-06
          1.2466794587e-06 1.2050090788e-06 1.2178353556e-06 1.2104844497e-06 1.2194271775e-06 1.1904114368e-06
          1.1735403027e-06 1.131811836e-06 1.0922497833e-06 1.1628302304e-06 1.1090363406e-06 1.0440322957e-06
          1.1179282158e-06 1.2500090146e-06 1.1721482698e-06 1.2996890191e-06 1.082194308e-06 1.1446223846e-06
          1.0945291573e-06 1.3445923606e-06 1.0557568015e-06 1.3087144889e-06 1.2201549344e-06 1.3260297929e-06
          1.2725579254e-06 1.1566676322e-06 1.0835719619e-06 1.0659840502e-06 1.1959536e-06 1.0721189117e-06
          1.1579084314e-06 1.1642585913e-06 1.1082449073e-06 1.1456564364e-06 1.233640423e-06 1.1737942821e-06
          1.0813332312e-06 1.1989231256e-06 1.2964147189e-06 1.2470523176e-06 1.1184706536e-06 1.2188407743e-06
          1.17366978e-06 1.3386153445e-06 1.3584187076e-06 1.1083950064e-06 1.3492046497e-06 1.2442106183e-06
          1.2487536512e-06 1.093839776e-06 1.1608055525e-06 1.3179251443e-06 1.3370094655e-06 1.0961532753e-06
          1.1425922735e-06 1.1151782251e-06 1.3082799265e-06 1.16424865e-06 1.0445503076e-06 1.2494278098e-06
          1.2123074604e-06 1.3407668326e-06 1.1645761997e-06 1.0676480131e-06 1.1491935012e-06 1.2453587528e-06
          1.3091169058e-06 1.2525991179e-06 1.1978726082e-06 1.3173864467e-06 1.3583780455e-06 1.3475942657e-06
          1.0612969002e-06 1.326353156e-06 1.2768083879e-06 1.0120449781e-06 1.2466255052e-06 1.2838422944e-06
          1.3141850409e-06 1.3166537147e-06 1.1263901487e-06 1.1146378111e-06 1.2985653271e-06 1.3270224336e-06
          1.0901426982e-06 1.2865436154e-06 1.3058397e-06 1.3336718279e-06 1.3035726258e-06 1.2331736624e-06
          1.2399746897e-06 1.1748839769e-06 1.0757118398e-06 1.2861753561e-06 1.2406063506e-06 1.2693979335e-06
          1.1068185642e-06 1.2965430392e-06 1.1184682343e-06 1.27940042e-06 1.2732718709e-06 1.2943374624e-06
          1.2736733605e-06 1.3498019142e-06 1.1559273901e-06 1.2144599937e-06 1.287382215e-06 1.2398981171e-06
          1.3312045005e-06 1.29660808e-06 1.2868505159e-06 1.1758626906e-06 1.347154744e-06 1.3032204173e-06
          1.2080077317e-06 1.2537825317e-06 1.2786215826e-06 1.2675364148e-06 1.2876444195e-06 1.3342950878e-06
          1.2053093002e-06 1.2655412009e-06 1.3301521123e-06 1.2227976416e-06 1.247547118e-06 1.3298690329e-06
          1.2888343824e-06 1.2709985075e-06 1.2583205843e-06 1.3386543439e-06 1.2570782783e-06 1.227165305e-06
          1.3047282374e-06 1.2904410371e-06 1.2518442613e-06 1.1833833941e-06 1.2230388851e-06 1.2320411297e-06
          1.2139113846e-06 1.2994203157e-06 1.332678246e-06 1.2324752374e-06 1.1836829416e-06 1.3407968585e-06
          1.2640050248e-06 1.2650919251e-06 1.1905154747e-06 1.288006967e-06 1.1653865615e-06 1.296055726e-06
          1.2571960261e-06 1.1136218149e-06 1.1934603251e-06 1.3128877338e-06 1.182492273e-06 1.1956546893e-06
          1.2313430149e-06 1.1829906091e-06 1.1655120417e-06 1.3049602942e-06 1.1990815268e-06 1.2779647613e-06
          1.2072758605e-06 1.1062170897e-06 1.216718426e-06 1.2680491593e-06 1.1634501462e-06 1.2734967156e-06
          1.2672201733e-06 1.1337303491e-06 1.2374588851e-06 1.2306522451e-06 1.2327620788e-06 1.2619218353e-06
          1.2585076982e-06 1.2499971025e-06 1.1455008179e-06 1.2382197898e-06 1.2215846691e-06 1.2129084297e-06
          1.1436120196e-06 1.2296606988e-06 1.1945616649e-06 1.2388077289e-06 1.1126153642e-06 1.1739206885e-06
          1.1132764769e-06 1.2253062417e-06 1.1870790333e-06 1.1546613636e-06 1.238509621e-06 1.1579897982e-06
          1.202492639e-06 1.3005589506e-06 1.1451531392e-06 1.2274722445e-06 1.1459373993e-06 1.1726096767e-06
          1.1197182289e-06 1.1211880647e-06 1.0856374697e-06 1.1433776319e-06 1.0656350111e-06 1.1367935308e-06
          1.1075561037e-06 1.1352197151e-06 1.1753918531e-06 1.0993078979e-06 1.1014166485e-06 1.1387564074e-06
          1.1841563246e-06 1.1304953235e-06 1.1485676009e-06 1.1139449905e-06 1.2089295619e-06 1.0789598281e-06
          1.0973839371e-06 1.1918228353e-06 1.1261562479e-06 1.1391340043e-06 1.2109437076e-06 1.1954468668e-06
          1.1336256403e-06 1.0994480012e-06 1.1629666732e-06 1.1888259046e-06 1.0888528308e-06 1.1221683656e-06
          1.1243871849e-06 1.193874278e-06 1.1834991803e-06 1.2491508691e-06 1.1104208393e-06 1.2263821704e-06
          1.1025981699e-06 1.1121928349e-06 1.1526219318e-06 1.2197031568e-06 1.0818817208e-06 1.1496390399e-06
          1.2086480215e-06 1.094904129e-06 1.135694703e-06 1.1926729009e-06 1.1247511661e-06 1.1413039507e-06
          1.2079892595e-06 1.1921221224e-06 1.1085152255e-06 1.1381361086e-06 1.1977919835e-06 1.1554198809e-06
          1.108354932e-06 1.1079064968e-06 1.1243677586e-06 1.1271057372e-06 1.1429410568e-06 1.1287459511e-06
          1.1527002503e-06 1.1639641785e-06 1.1085144308e-06 1.1120037466e-06 1.0491107342e-06 1.0409622805e-06
          1.036116526e-06 1.0333345891e-06 1.1535709383e-06 1.1202698478e-06 1.0862321092e-06 1.1242173064e-06
          1.0775541539e-06 1.1326208194e-06 1.1101231799e-06 1.1849489603e-06 1.082391537e-06 1.07475613e-06
          1.0246823006e-06 1.1028171549e-06 1.1119881268e-06 1.1554618158e-06 1.1230846972e-06 1.1318525383e-06
          1.0283496579e-06 1.1203686091e-06 1.1372846976e-06 1.1915887338e-06 1.1250366819e-06 1.1120459169e-06
          1.1045556802e-06 1.0736168199e-06 1.0864177055e-06 1.0795848261e-06 1.0720579162e-06 1.078681857e-06
          1.0314689094e-06 1.1599690916e-06 1.0883022758e-06 1.1346772446e-06 1.1445550746e-06 1.0643506169e-06
          1.1457632573e-06 1.0691091702e-06 1.055859942e-06 1.1411117505e-06 1.1351941974e-06 1.0806209282e-06
          1.2965592671e-06 1.178350528e-06 1.1537607617e-06 1.0373546291e-06 1.232667898e-06 1.1056646561e-06
          1.3398264296e-06 1.2989012956e-06 1.2865366804e-06 1.1830691096e-06 1.3559428512e-06 1.1317676058e-06
          1.3223820696e-06 1.2834859319e-06 1.2798424435e-06 1.1191721534e-06 1.359457119e-06 1.3211302767e-06
          1.26976052e-06 1.2539683494e-06 1.2486653096e-06 1.2666449396e-06 1.2465263264e-06 1.3276798538e-06
          1.0561064298e-06 1.1827834274e-06 1.24991448e-06 1.1283140131e-06 1.2084203319e-06 1.2549947387e-06
          1.1526856955e-06 1.240974779e-06 1.2765524953e-06 1.2585449423e-06 1.3436384772e-06 1.2990102825e-06
          1.1922267781e-06 1.2095055282e-06 1.1569806536e-06 1.2913415993e-06 1.2422773696e-06 1.1917946651e-06
          1.1213297177e-06 1.3397197189e-06 1.2344932564e-06 1.0997754544e-06 1.1161360872e-06 1.2993589751e-06
          1.3442236782e-06 1.3030953251e-06 1.2495488808e-06 1.3372306773e-06 1.1998081925e-06 1.1768120204e-06
          1.2948727293e-06 1.262447357e-06 1.1419977687e-06 1.3566507944e-06 1.1512305899e-06 1.2675307062e-06
          1.1046089324e-06 1.3199807499e-06 1.2396655102e-06 1.2701128101e-06 1.3443364809e-06 1.3514124745e-06
          1.1890814064e-06 1.2872591365e-06 1.2297669368e-06 1.0764550807e-06 1.1216642268e-06 1.1460493683e-06
          1.3267983663e-06 1.2289227701e-06 1.0930523936e-06 1.0553507296e-06 1.1456068026e-06 1.1361396835e-06
          1.1913931952e-06 1.1709403578e-06 1.2067209272e-06 1.3344559088e-06 1.21476019e-06 1.0938558197e-06
          1.2407306801e-06 1.1017223912e-06 1.1631790009e-06 1.1663357245e-06 1.2547368967e-06 1.2376228613e-06
          1.3507792155e-06 1.0598428251e-06 1.2666502959e-06 1.1725043271e-06 1.3194634136e-06 1.1283507363e-06
          1.2202521305e-06 1.3206296146e-06 1.3180057509e-06 1.2905827776e-06 1.0234698119e-06 1.1775761768e-06
          1.1652269287e-06 1.340712725e-06 1.0855448638e-06 1.2452173741e-06 1.3347217754e-06 1.1338194096e-06
          1.3317201444e-06 1.2024088505e-06 1.238809656e-06 1.0202160164e-06 1.3273710464e-06 1.127866897e-06
          1.3385345716e-06 1.0347894887e-06 1.3384231796e-06 1.3435529862e-06 1.3426611785e-06 1.1693949689e-06
          1.1239127527e-06 1.0392580128e-06 1.0828948109e-06 1.1207188456e-06 1.1730284575e-06 1.1506930194e-06
          1.1569058961e-06 1.28129513e-06 1.2717541678e-06 1.1320101074e-06 1.3202383578e-06 1.2982514179e-06
          1.355311209e-06 1.1789436309e-06 1.2564413934e-06 1.3257820418e-06 1.3249588584e-06 1.1296378308e-06
          1.2059158877e-06 1.335866786e-06 1.330793674e-06 1.2412949623e-06 1.207735189e-06 1.1858274455e-06
          1.1700397446e-06 1.1170829095e-06 1.1482193202e-06 1.2680045289e-06 1.2344497763e-06 1.199601598e-06
          1.251770734e-06 1.2459542314e-06 1.1653219605e-06 1.1954647397e-06 1.2726484703e-06 1.1956019892e-06
          1.1420452092e-06 1.2208597141e-06 1.1004567157e-06 1.1095533698e-06 1.1579302893e-06 1.2814750406e-06
          1.2292760923e-06 1.2544455616e-06 1.21873084e-06 1.2345578264e-06 1.2875472596e-06 1.1103295754e-06
          1.2144323086e-06 1.2062283869e-06 1.1398493881e-06 1.2132156732e-06 1.2689336702e-06 1.2074133587e-06
          1.2711623476e-06 1.2506224869e-06 1.1201066719e-06 1.1250717912e-06 1.1734513388e-06 1.1245265782e-06
          1.1193829819e-06 1.1360384104e-06 1.084715951e-06 1.1174435953e-06 1.1716653157e-06 1.0985755693e-06
          1.2223816972e-06 1.1007389994e-06 1.1474470802e-06 1.1764667938e-06 1.1187857293e-06 1.1078589136e-06
          1.1014329742e-06 1.1961802482e-06 1.1776704159e-06 1.0549813164e-06 1.107959317e-06 1.2089613161e-06
          1.1224995497e-06 1.0430158148e-06 1.1818019063e-06 1.1217401568e-06 1.0208651331e-06 1.0828269197e-06
          1.0952437506e-06 1.0489638546e-06 1.1131069913e-06 1.0280523318e-06 1.1615946108e-06 1.0253472252e-06