<?xml version="1.0"?>
<VTKFile type="UnstructuredGrid" version="0.1" byte_order="LittleEndian" header_type="UInt32" compressor="vtkZLibDataCompressor">
  <UnstructuredGrid>
    <Piece NumberOfPoints="1781" NumberOfCells="1781">
      <PointData>
        <DataArray type="Int32" Name="id" format="ascii" RangeMin="1" RangeMax="1781">
          8 6 5 11 12 13
          21 22 23 32 33 34
          44 45 46 47 48 49
          57 58 67 68 78 79
          80 81 82 83 94 95
          96 97 98 99 113 114
          115 116 117 118 138 139
          140 141 142 143 144 145
          160 161 162 163 164 165
          166 167 168 189 190 191
          192 193 194 195 196 229
          230 231 232 233 234 235
          236 237 238 239 240 241
          242 243 274 275 276 277
          278 279 280 281 282 283
          284 285 286 287 313 314
          315 316 317 318 319 320
          321 322 323 324 371 372
          373 374 375 376 377 378
          379 380 381 382 383 384
          385 386 447 448 449 450
          451 452 453 454 455 456
          457 458 459 460 461 462
          463 464 465 466 467 510
          511 512 513 514 515 516
          517 518 519 520 521 522
          523 524 525 526 527 528
          529 530 531 580 581 582
          583 584 585 586 587 588
          589 590 591 592 593 594
          595 596 597 598 599 600
          601 602 603 604 605 606
          607 608 609 610 679 680
          681 682 683 684 685 686
          687 688 689 690 691 692
          693 694 695 696 697 698
          699 700 701 702 703 704
          705 791 792 793 794 795
          796 797 798 799 800 801
          802 803 804 805 806 807
          808 809 810 895 896 897
          898 899 900 901 902 903
          904 905 906 907 908 909
          910 911 912 913 914 915
          916 1001 1002 1003 1004 1005
          1006 1007 1008 1009 1010 1011
          1012 1013 1014 1015 1016 1017
          1018 1019 1020 1021 1022 1023
          1024 1025 1026 1027 1028 1029
          1030 1031 1032 1033 1034 1035
          1036 1037 1038 1039 1040 1041
          1042 1043 1044 1045 1046 1047
          1048 1049 1143 1144 1145 1146
          1147 1148 1149 1150 1151 1152
          1153 1154 1155 1156 1157 1158
          1159 1160 1161 1162 1163 1164
          1165 1166 1167 1168 1169 1170
          1171 1172 1173 1174 1175 1176
          1177 1178 1179 1180 1181 1182
          1183 1289 1290 1291 1292 1293
          1294 1295 1296 1297 1298 1299
          1300 1301 1302 1303 1304 1305
          1306 1307 1308 1309 1310 1311
          1312 1313 1314 1315 1316 1317
          1318 1319 1320 1321 1322 1323
          1324 1325 1326 1327 1328 1329
          1330 1331 1332 1333 1334 1335
          1457 1458 1459 1460 1461 1462
          1463 1464 1465 1466 1467 1468
          1469 1470 1471 1472 1473 1474
          1475 1476 1477 1478 1479 1480
          1481 1482 1483 1484 1485 1486
          1487 1488 1489 1490 1611 1612
          1613 1614 1615 1616 1617 1618
          1619 1620 1621 1622 1623 1624
          1625 1626 1627 1628 1629 1630
          1631 1632 1633 1634 1635 1636
          1637 1638 1639 1640 1641 1642
          1643 1644 1645 1646 1647 1648
          1649 1650 1651 1652 1653 1654
          1655 1656 1657 1658 1659 9
          4 3 7 14 15 16
          17 24 25 26 30 31
          35 36 37 41 50 51
          52 53 54 59 60 61
          62 63 69 70 71 72
          84 85 86 87 88 89
          100 101 102 103 104 105
          106 107 119 120 121 122
          123 124 125 126 127 128
          129 130 146 147 148 149
          150 151 169 170 171 172
          173 174 175 176 177 178
          179 197 198 199 200 201
          202 203 204 205 206 207
          208 209 210 211 212 213
          214 215 216 244 245 246
          247 248 249 250 251 252
          253 254 255 256 257 258
          259 260 261 288 289 290
          291 292 293 294 295 296
          297 298 299 300 301 325
          326 327 328 329 330 331
          332 333 334 335 336 337
          338 339 340 341 342 343
          344 345 346 347 387 388
          389 390 391 392 393 394
          395 396 397 398 399 400
          401 402 403 404 405 406
          407 408 409 410 411 412
          413 414 415 416 417 418
          419 420 421 422 423 468
          469 470 471 472 473 474
          475 476 477 478 479 480
          481 482 483 484 485 486
          487 488 489 490 491 492
          493 494 495 496 532 533
          534 535 536 537 538 539
          540 541 542 543 544 545
          546 547 548 549 550 551
          552 553 554 555 556 557
          558 559 611 612 613 614
          615 616 617 618 619 620
          621 622 623 624 625 626
          627 628 629 630 631 632
          633 634 635 636 637 638
          639 640 641 642 643 644
          645 706 707 708 709 710
          711 712 713 714 715 716
          717 718 719 720 721 722
          723 724 725 726 727 728
          729 730 731 732 733 734
          735 736 737 738 739 740
          741 742 743 744 745 746
          747 748 749 750 751 752
          753 754 811 812 813 814
          815 816 817 818 819 820
          821 822 823 824 825 826
          827 828 829 830 831 832
          833 834 835 836 837 838
          839 840 841 842 843 844
          845 846 847 848 849 850
          851 852 853 854 855 856
          857 858 917 918 919 920
          921 922 923 924 925 926
          927 928 929 930 931 932
          933 934 935 936 937 938
          939 940 941 942 943 944
          945 946 947 948 949 950
          951 952 953 954 955 956
          957 958 959 960 961 962
          963 964 965 966 967 968
          969 970 1050 1051 1052 1053
          1054 1055 1056 1057 1058 1059
          1060 1061 1062 1063 1064 1065
          1066 1067 1068 1069 1070 1071
          1072 1073 1074 1075 1076 1077
          1078 1079 1080 1081 1082 1083
          1084 1085 1086 1087 1088 1089
          1090 1091 1092 1093 1094 1095
          1096 1097 1098 1099 1100 1101
          1102 1103 1104 1184 1185 1186
          1187 1188 1189 1190 1191 1192
          1193 1194 1195 1196 1197 1198
          1199 1200 1201 1202 1203 1204
          1205 1206 1207 1208 1209 1210
          1211 1212 1213 1214 1215 1216
          1217 1218 1219 1220 1221 1222
          1223 1224 1225 1226 1227 1228
          1229 1230 1231 1232 1233 1234
          1235 1236 1237 1336 1337 1338
          1339 1340 1341 1342 1343 1344
          1345 1346 1347 1348 1349 1350
          1351 1352 1353 1354 1355 1356
          1357 1358 1359 1360 1361 1362
          1363 1364 1365 1366 1367 1368
          1369 1370 1371 1372 1373 1374
          1375 1376 1377 1378 1379 1380
          1381 1382 1383 1384 1385 1386
          1387 1388 1389 1390 1391 1392
          1393 1394 1395 1396 1397 1398
          1399 1400 1401 1402 1403 1404
          1405 1406 1407 1408 1491 1492
          1493 1494 1495 1496 1497 1498
          1499 1500 1501 1502 1503 1504
          1505 1506 1507 1508 1509 1510
          1511 1512 1513 1514 1515 1516
          1517 1518 1519 1520 1521 1522
          1523 1524 1525 1526 1527 1528
          1529 1530 1531 1532 1533 1534
          1535 1536 1537 1538 1539 1540
          1541 1542 1543 1544 1545 1546
          1547 1548 1549 1550 1551 1552
          1553 1554 1555 1556 1557 1558
          1559 1560 1561 1562 1660 1661
          1662 1663 1664 1665 1666 1667
          1668 1669 1670 1671 1672 1673
          1674 1675 1676 1677 1678 1679
          1680 1681 1682 1683 1684 1685
          1686 1687 1688 1689 1690 1691
          1692 1693 1694 1695 1696 1697
          1698 1699 1700 1701 1702 1703
          1704 1705 1706 1707 1708 1709
          1710 1711 1712 1713 1714 1715
          1716 1717 1718 1719 1720 1721
          1722 1723 1724 1725 1726 1727
          1728 1729 10 1 18 19
          27 28 38 39 42 55
          56 64 73 74 75 76
          77 90 108 109 110 111
          112 131 132 133 152 153
          154 155 156 157 180 181
          182 183 184 185 217 218
          219 220 221 222 223 224
          262 263 264 265 266 267
          268 302 303 304 305 306
          307 308 348 349 350 351
          352 353 354 355 356 357
          358 359 360 361 362 363
          424 425 426 427 428 429
          430 431 432 433 434 435
          436 437 497 498 499 500
          501 502 503 560 561 562
          563 564 565 566 567 568
          569 570 571 572 573 574
          646 647 648 649 650 651
          652 653 654 655 656 657
          658 659 660 661 662 663
          664 665 666 755 756 757
          758 759 760 761 762 763
          764 765 766 767 768 769
          770 771 772 773 774 859
          860 861 862 863 864 865
          866 867 868 869 870 871
          872 873 874 875 876 877
          878 879 880 881 971 972
          973 974 975 976 977 978
          979 980 981 982 983 984
          985 986 987 988 989 990
          991 992 1105 1106 1107 1108
          1109 1110 1111 1112 1113 1114
          1115 1116 1117 1118 1119 1120
          1121 1122 1123 1124 1125 1126
          1127 1128 1129 1238 1239 1240
          1241 1242 1243 1244 1245 1246
          1247 1248 1249 1250 1251 1252
          1253 1254 1255 1256 1257 1258
          1259 1260 1261 1262 1263 1264
          1265 1266 1267 1268 1269 1270
          1409 1410 1411 1412 1413 1414
          1415 1416 1417 1418 1419 1420
          1421 1422 1423 1424 1425 1426
          1427 1428 1429 1430 1431 1432
          1433 1434 1435 1436 1437 1438
          1439 1563 1564 1565 1566 1567
          1568 1569 1570 1571 1572 1573
          1574 1575 1576 1577 1578 1579
          1580 1581 1582 1583 1584 1585
          1586 1587 1588 1589 1590 1591
          1592 1593 1594 1730 1731 1732
          1733 1734 1735 1736 1737 1738
          1739 1740 1741 1742 1743 1744
          1745 1746 1747 1748 1749 1750
          1751 1752 1753 1754 1755 1756
          1757 1758 1759 1760 1761 1762
          2 20 29 40 43 65
          66 91 92 93 134 135
          136 137 158 159 186 187
          188 225 226 227 228 269
          270 271 272 273 309 310
          311 312 364 365 366 367
          368 369 370 438 439 440
          441 442 443 444 445 446
          504 505 506 507 508 509
          575 576 577 578 579 667
          668 669 670 671 672 673
          674 675 676 677 678 775
          776 777 778 779 780 781
          782 783 784 785 786 787
          788 789 790 882 883 884
          885 886 887 888 889 890
          891 892 893 894 993 994
          995 996 997 998 999 1000
          1130 1131 1132 1133 1134 1135
          1136 1137 1138 1139 1140 1141
          1142 1271 1272 1273 1274 1275
          1276 1277 1278 1279 1280 1281
          1282 1283 1284 1285 1286 1287
          1288 1440 1441 1442 1443 1444
          1445 1446 1447 1448 1449 1450
          1451 1452 1453 1454 1455 1456
          1595 1596 1597 1598 1599 1600
          1601 1602 1603 1604 1605 1606
          1607 1608 1609 1610 1763 1764
          1765 1766 1767 1768 1769 1770
          1771 1772 1773 1774 1775 1776
          1777 1778 1779 1780 1781
        </DataArray>
        <DataArray type="Int32" Name="type" format="ascii" RangeMin="1" RangeMax="1">
          1 1 1 1 1 1
          1 1 1 1 1 1
          1 1 1 1 1 1
          1 1 1 1 1 1
          1 1 1 1 1 1
          1 1 1 1 1 1
          1 1 1 1 1 1
          1 1 1 1 1 1
          1 1 1 1 1 1
          1 1 1 1 1 1
          1 1 1 1 1 1
          1 1 1 1 1 1
          1 1 1 1 1 1
          1 1 1 1 1 1
          1 1 1 1 1 1
          1 1 1 1 1 1
          1 1 1 1 1 1
          1 1 1 1 1 1
          1 1 1 1 1 1
          1 1 1 1 1 1
          1 1 1 1 1 1
          1 1 1 1 1 1
          1 1 1 1 1 1
          1 1 1 1 1 1
          1 1 1 1 1 1
          1 1 1 1 1 1
          1 1 1 1 1 1
          1 1 1 1 1 1
          1 1 1 1 1 1
          1 1 1 1 1 1
          1 1 1 1 1 1
          1 1 1 1 1 1
          1 1 1 1 1 1
          1 1 1 1 1 1
          1 1 1 1 1 1
          1 1 1 1 1 1
          1 1 1 1 1 1
          1 1 1 1 1 1
          1 1 1 1 1 1
          1 1 1 1 1 1
          1 1 1 1 1 1
          1 1 1 1 1 1
          1 1 1 1 1 1
          1 1 1 1 1 1
          1 1 1 1 1 1
          1 1 1 1 1 1
          1 1 1 1 1 1
          1 1 1 1 1 1
          1 1 1 1 1 1
          1 1 1 1 1 1
          1 1 1 1 1 1
          1 1 1 1 1 1
          1 1 1 1 1 1
          1 1 1 1 1 1
          1 1 1 1 1 1
          1 1 1 1 1 1
          1 1 1 1 1 1
          1 1 1 1 1 1
          1 1 1 1 1 1
          1 1 1 1 1 1
          1 1 1 1 1 1
          1 1 1 1 1 1
          1 1 1 1 1 1
          1 1 1 1 1 1
          1 1 1 1 1 1
          1 1 1 1 1 1
          1 1 1 1 1 1
          1 1 1 1 1 1
          1 1 1 1 1 1
          1 1 1 1 1 1
          1 1 1 1 1 1
          1 1 1 1 1 1
          1 1 1 1 1 1
          1 1 1 1 1 1
          1 1 1 1 1 1
          1 1 1 1 1 1
          1 1 1 1 1 1
          1 1 1 1 1 1
          1 1 1 1 1 1
          1 1 1 1 1 1
          1 1 1 1 1 1
          1 1 1 1 1 1
          1 1 1 1 1 1
          1 1 1 1 1 1
          1 1 1 1 1 1
          1 1 1 1 1 1
          1 1 1 1 1 1
          1 1 1 1 1 1
          1 1 1 1 1 1
          1 1 1 1 1 1
          1 1 1 1 1 1
          1 1 1 1 1 1
          1 1 1 1 1 1
          1 1 1 1 1 1
          1 1 1 1 1 1
          1 1 1 1 1 1
          1 1 1 1 1 1
          1 1 1 1 1 1
          1 1 1 1 1 1
          1 1 1 1 1 1
          1 1 1 1 1 1
          1 1 1 1 1 1
          1 1 1 1 1 1
          1 1 1 1 1 1
          1 1 1 1 1 1
          1 1 1 1 1 1
          1 1 1 1 1 1
          1 1 1 1 1 1
          1 1 1 1 1 1
          1 1 1 1 1 1
          1 1 1 1 1 1
          1 1 1 1 1 1
          1 1 1 1 1 1
          1 1 1 1 1 1
          1 1 1 1 1 1
          1 1 1 1 1 1
          1 1 1 1 1 1
          1 1 1 1 1 1
          1 1 1 1 1 1
          1 1 1 1 1 1
          1 1 1 1 1 1
          1 1 1 1 1 1
          1 1 1 1 1 1
          1 1 1 1 1 1
          1 1 1 1 1 1
          1 1 1 1 1 1
          1 1 1 1 1 1
          1 1 1 1 1 1
          1 1 1 1 1 1
          1 1 1 1 1 1
          1 1 1 1 1 1
          1 1 1 1 1 1
          1 1 1 1 1 1
          1 1 1 1 1 1
          1 1 1 1 1 1
          1 1 1 1 1 1
          1 1 1 1 1 1
          1 1 1 1 1 1
          1 1 1 1 1 1
          1 1 1 1 1 1
          1 1 1 1 1 1
          1 1 1 1 1 1
          1 1 1 1 1 1
          1 1 1 1 1 1
          1 1 1 1 1 1
          1 1 1 1 1 1
          1 1 1 1 1 1
          1 1 1 1 1 1
          1 1 1 1 1 1
          1 1 1 1 1 1
          1 1 1 1 1 1
          1 1 1 1 1 1
          1 1 1 1 1 1
          1 1 1 1 1 1
          1 1 1 1 1 1
          1 1 1 1 1 1
          1 1 1 1 1 1
          1 1 1 1 1 1
          1 1 1 1 1 1
          1 1 1 1 1 1
          1 1 1 1 1 1
          1 1 1 1 1 1
          1 1 1 1 1 1
          1 1 1 1 1 1
          1 1 1 1 1 1
          1 1 1 1 1 1
          1 1 1 1 1 1
          1 1 1 1 1 1
          1 1 1 1 1 1
          1 1 1 1 1 1
          1 1 1 1 1 1
          1 1 1 1 1 1
          1 1 1 1 1 1
          1 1 1 1 1 1
          1 1 1 1 1 1
          1 1 1 1 1 1
          1 1 1 1 1 1
          1 1 1 1 1 1
          1 1 1 1 1 1
          1 1 1 1 1 1
          1 1 1 1 1 1
          1 1 1 1 1 1
          1 1 1 1 1 1
          1 1 1 1 1 1
          1 1 1 1 1 1
          1 1 1 1 1 1
          1 1 1 1 1 1
          1 1 1 1 1 1
          1 1 1 1 1 1
          1 1 1 1 1 1
          1 1 1 1 1 1
          1 1 1 1 1 1
          1 1 1 1 1 1
          1 1 1 1 1 1
          1 1 1 1 1 1
          1 1 1 1 1 1
          1 1 1 1 1 1
          1 1 1 1 1 1
          1 1 1 1 1 1
          1 1 1 1 1 1
          1 1 1 1 1 1
          1 1 1 1 1 1
          1 1 1 1 1 1
          1 1 1 1 1 1
          1 1 1 1 1 1
          1 1 1 1 1 1
          1 1 1 1 1 1
          1 1 1 1 1 1
          1 1 1 1 1 1
          1 1 1 1 1 1
          1 1 1 1 1 1
          1 1 1 1 1 1
          1 1 1 1 1 1
          1 1 1 1 1 1
          1 1 1 1 1 1
          1 1 1 1 1 1
          1 1 1 1 1 1
          1 1 1 1 1 1
          1 1 1 1 1 1
          1 1 1 1 1 1
          1 1 1 1 1 1
          1 1 1 1 1 1
          1 1 1 1 1 1
          1 1 1 1 1 1
          1 1 1 1 1 1
          1 1 1 1 1 1
          1 1 1 1 1 1
          1 1 1 1 1 1
          1 1 1 1 1 1
          1 1 1 1 1 1
          1 1 1 1 1 1
          1 1 1 1 1 1
          1 1 1 1 1 1
          1 1 1 1 1 1
          1 1 1 1 1 1
          1 1 1 1 1 1
          1 1 1 1 1 1
          1 1 1 1 1 1
          1 1 1 1 1 1
          1 1 1 1 1 1
          1 1 1 1 1 1
          1 1 1 1 1 1
          1 1 1 1 1 1
          1 1 1 1 1 1
          1 1 1 1 1 1
          1 1 1 1 1 1
          1 1 1 1 1 1
          1 1 1 1 1 1
          1 1 1 1 1 1
          1 1 1 1 1 1
          1 1 1 1 1 1
          1 1 1 1 1 1
          1 1 1 1 1 1
          1 1 1 1 1 1
          1 1 1 1 1 1
          1 1 1 1 1 1
          1 1 1 1 1 1
          1 1 1 1 1 1
          1 1 1 1 1 1
          1 1 1 1 1 1
          1 1 1 1 1 1
          1 1 1 1 1 1
          1 1 1 1 1 1
          1 1 1 1 1 1
          1 1 1 1 1 1
          1 1 1 1 1 1
          1 1 1 1 1 1
          1 1 1 1 1 1
          1 1 1 1 1 1
          1 1 1 1 1 1
          1 1 1 1 1 1
          1 1 1 1 1 1
          1 1 1 1 1 1
          1 1 1 1 1 1
          1 1 1 1 1 1
          1 1 1 1 1 1
          1 1 1 1 1 1
          1 1 1 1 1 1
          1 1 1 1 1 1
          1 1 1 1 1 1
          1 1 1 1 1 1
          1 1 1 1 1 1
          1 1 1 1 1 1
          1 1 1 1 1 1
          1 1 1 1 1 1
          1 1 1 1 1 1
          1 1 1 1 1 1
          1 1 1 1 1 1
          1 1 1 1 1 1
          1 1 1 1 1 1
          1 1 1 1 1 1
          1 1 1 1 1 1
          1 1 1 1 1 1
          1 1 1 1 1 1
          1 1 1 1 1 1
          1 1 1 1 1 1
          1 1 1 1 1
        </DataArray>
        <DataArray type="Float64" Name="diameter" format="ascii" RangeMin="1.0077212853e-06" RangeMax="1.3595771909e-06">
          1.358381623e-06 1.2525290504e-06 1.2933454058e-06 1.3276679375e-06 1.1192469524e-06 1.2828610838e-06
          1.1118817254e-06 1.3548082902e-06 1.2050271013e-06 1.0564933117e-06 1.2920714227e-06 1.2343433176e-06
          1.110821249e-06 1.112788563e-06 1.2738985182e-06 1.3521345425e-06 1.0486609396e-06 1.2001043067e-06
          1.3216916487e-06 1.1616892143e-06 1.1730808487e-06 1.1443491124e-06 1.1511052666e-06 1.1710389343e-06
          1.3333038653e-06 1.2670374069e-06 1.2685224524e-06 1.1850210275e-06 1.2837507085e-06 1.2066807148e-06
          1.2161749645e-06 1.2277161237e-06 1.0933560427e-06 1.1275125958e-06 1.0824351235e-06 1.2816261886e-06
          1.132810325e-06 1.2140788847e-06 1.163161535e-06 1.3055750622e-06 1.2958686314e-06 1.1582464194e-06
          1.2130962314e-06 1.1630880689e-06 1.1723007352e-06 1.0714563442e-06 1.2630623267e-06 1.3357331971e-06
          1.1949999394e-06 1.2549786205e-06 1.1981418138e-06 1.2535169015e-06 1.1319930002e-06 1.3333560026e-06
          1.1776304666e-06 1.1004742309e-06 1.0540509792e-06 1.0787412772e-06 1.114432954e-06 1.1124623665e-06
          1.1940974024e-06 1.1679055834e-06 1.1903815583e-06 1.3037258906e-06 1.1482010322e-06 1.352520984e-06
          1.3133319703e-06 1.336541139e-06 1.1781668924e-06 1.024666849e-06 1.125186969e-06 1.1385722879e-06
          1.1649055849e-06 1.2554916271e-06 1.1557217978e-06 1.0904834047e-06 1.2509311733e-06 1.1934166082e-06
          1.2401489554e-06 1.1579867838e-06 1.3382989407e-06 1.3072357811e-06 1.1952117091e-06 1.1085233459e-06
          1.1643467667e-06 1.2894643311e-06 1.2673652534e-06 1.1618847535e-06 1.2652605043e-06 1.1021441357e-06
          1.1621659798e-06 1.2026902183e-06 1.0818569727e-06 1.1106487198e-06 1.0732392871e-06 1.1682331939e-06
          1.1841077754e-06 1.1722140209e-06 1.3379079917e-06 1.2035027532e-06 1.2515591924e-06 1.0803617262e-06
          1.300196043e-06 1.3462616127e-06 1.1108766252e-06 1.2957991651e-06 1.1366929584e-06 1.1061634952e-06
          1.3083836699e-06 1.1599810036e-06 1.3048992595e-06 1.15973297e-06 1.1730231401e-06 1.195244083e-06
          1.192330029e-06 1.2351753247e-06 1.1575293564e-06 1.1718200159e-06 1.3386131474e-06 1.2799651056e-06
          1.2241893793e-06 1.2097074788e-06 1.1566972585e-06 1.2216294953e-06 1.3159451003e-06 1.3062347858e-06
          1.2571142315e-06 1.2291822331e-06 1.0681650847e-06 1.0929010614e-06 1.2513131534e-06 1.2053683068e-06
          1.2421174901e-06 1.2408249576e-06 1.2013684584e-06 1.1307532571e-06 1.0288847948e-06 1.2065722426e-06
          1.1831529781e-06 1.1761743158e-06 1.2032469997e-06 1.3175151271e-06 1.1627389119e-06 1.1691966714e-06
          1.2488645986e-06 1.3514971875e-06 1.0766646811e-06 1.0637775481e-06 1.3121724419e-06 1.2335762988e-06
          1.0175774327e-06 1.0526025551e-06 1.1597711541e-06 1.0962616753e-06 1.1613001727e-06 1.3438011658e-06
          1.1727512935e-06 1.0750668029e-06 1.2071309151e-06 1.2920255368e-06 1.0700143887e-06 1.1404675826e-06
          1.1715497557e-06 1.1387983768e-06 1.1387685934e-06 1.2557037918e-06 1.3260773736e-06 1.2637280573e-06
          1.2964329158e-06 1.1433937658e-06 1.1613990832e-06 1.3275110493e-06 1.1233585576e-06 1.1067848391e-06
          1.209738202e-06 1.3127106242e-06 1.2773881428e-06 1.2085641809e-06 1.2653215812e-06 1.10483872e-06
          1.0651648689e-06 1.1219054369e-06 1.3436326127e-06 1.3095012343e-06 1.3189242011e-06 1.1728831396e-06
          1.1573860424e-06 1.2236504487e-06 1.1136121935e-06 1.1824124086e-06 1.1083526259e-06 1.3013395621e-06
          1.3136894144e-06 1.1692054452e-06 1.0894952887e-06 1.2469776883e-06 1.1819403868e-06 1.1124155993e-06
          1.1818331643e-06 1.2591072832e-06 1.1007858538e-06 1.0952511314e-06 1.2668948793e-06 1.25814555e-06
          1.2251478587e-06 1.3510717322e-06 1.2384363394e-06 1.2281377089e-06 1.2235208305e-06 1.1750400706e-06
          1.1334800282e-06 1.0249093416e-06 1.1813447076e-06 1.3437550116e-06 1.1245416328e-06 1.2237031904e-06
          1.0560348572e-06 1.1935513441e-06 1.3505631945e-06 1.1725000476e-06 1.0878205021e-06 1.1508926325e-06
          1.276811212e-06 1.0909015856e-06 1.0243998697e-06 1.1744491917e-06 1.3526483743e-06 1.3449079903e-06
          1.1501701694e-06 1.26395191e-06 1.157118737e-06 1.1068260233e-06 1.3169794181e-06 1.159965161e-06
          1.2477774244e-06 1.1170665313e-06 1.1942781194e-06 1.214213547e-06 1.2655545714e-06 1.2090115686e-06
          1.314507425e-06 1.2741335285e-06 1.3425808208e-06 1.1695528909e-06 1.235510411e-06 1.2703315579e-06
          1.3299635706e-06 1.1018378232e-06 1.2219033658e-06 1.276057755e-06 1.220791283e-06 1.3313708891e-06
          1.338480232e-06 1.1597242714e-06 1.2199564933e-06 1.2632261495e-06 1.1652883009e-06 1.0831785401e-06
          1.3036580567e-06 1.1325406402e-06 1.2701814018e-06 1.0895058933e-06 1.3493281693e-06 1.1617637079e-06
          1.1229159892e-06 1.3453231986e-06 1.1708769303e-06 1.1070550499e-06 1.2597492771e-06 1.2347520937e-06
          1.2006648266e-06 1.2497044292e-06 1.1457142449e-06 1.2410689971e-06 1.2725273404e-06 1.2844292864e-06
          1.144475141e-06 1.2835832953e-06 1.2182641312e-06 1.1413862727e-06 1.2907303508e-06 1.1108157539e-06
          1.2616599465e-06 1.2565955647e-06 1.3474626438e-06 1.206236721e-06 1.3171392886e-06 1.253263651e-06
          1.3145601749e-06 1.0597048419e-06 1.2794073526e-06 1.2474028987e-06 1.3124925192e-06 1.2977860598e-06
          1.1023489367e-06 1.2564873854e-06 1.3226305176e-06 1.2302177299e-06 1.2522078021e-06 1.1100949641e-06
          1.1472539454e-06 1.208971172e-06 1.2911938334e-06 1.178761363e-06 1.2788493715e-06 1.1040489762e-06
          1.3093684052e-06 1.3215833622e-06 1.2470782411e-06 1.3133643619e-06 1.0662386455e-06 1.3159580143e-06
          1.2641114215e-06 1.2458021223e-06 1.2161792223e-06 1.1874204713e-06 1.3304846978e-06 1.3188770003e-06
          1.225841065e-06 1.1463579598e-06 1.2560559127e-06 1.2151914347e-06 1.2978456619e-06 1.1411426278e-06
          1.1829560809e-06 1.2027267273e-06 1.2083151703e-06 1.3210100057e-06 1.1567925361e-06 1.1843379167e-06
          1.2237795866e-06 1.2366408146e-06 1.188621761e-06 1.2731432948e-06 1.1944326801e-06 1.1623151798e-06
          1.328292682e-06 1.1519169125e-06 1.3232558905e-06 1.202962441e-06 1.109707258e-06 1.169281231e-06
          1.3373313168e-06 1.2148733893e-06 1.2617660729e-06 1.2711358205e-06 1.1796881601e-06 1.2809992309e-06
          1.2840256768e-06 1.3442877157e-06 1.0891824121e-06 1.2863696861e-06 1.2391813047e-06 1.2312118918e-06
          1.2443531248e-06 1.2177655255e-06 1.1663176402e-06 1.184501428e-06 1.2326489079e-06 1.1532876766e-06
          1.2421738773e-06 1.0823718331e-06 1.1119786611e-06 1.1566298762e-06 1.1883295712e-06 1.1756154306e-06
          1.148620619e-06 1.1952173407e-06 1.1227471128e-06 1.1779423835e-06 1.2340518688e-06 1.1463519642e-06
          1.2173545546e-06 1.1279773958e-06 1.2065143602e-06 1.1486358507e-06 1.1671842183e-06 1.0961402783e-06
          1.1038640878e-06 1.108075988e-06 1.1642604285e-06 1.1113901e-06 1.1321414899e-06 1.1583095709e-06
          1.1369909462e-06 1.1273653365e-06 1.1761354902e-06 1.2803578475e-06 1.2206570898e-06 1.2142527888e-06
          1.1359984099e-06 1.2420609113e-06 1.0956795984e-06 1.175399698e-06 1.2684529243e-06 1.2489467891e-06
          1.2241272886e-06 1.2750702915e-06 1.2926309074e-06 1.1638628487e-06 1.1065909058e-06 1.2380293219e-06
          1.2388478868e-06 1.0465978346e-06 1.078543685e-06 1.1245671607e-06 1.1799263688e-06 1.1403776565e-06
          1.2326932719e-06 1.0924437654e-06 1.2458490823e-06 1.1277315914e-06 1.1431709181e-06 1.1199792106e-06
          1.186347672e-06 1.0851431811e-06 1.1461056279e-06 1.1745916238e-06 1.0414498537e-06 1.1032296534e-06
          1.1262981837e-06 1.1328901597e-06 1.1304071014e-06 1.1587093619e-06 1.1538973388e-06 1.0987633917e-06
          1.1227488479e-06 1.204723435e-06 1.2279267347e-06 1.16608453e-06 1.138886329e-06 1.1771359319e-06
          1.1796287426e-06 1.2236449751e-06 1.1720010386e-06 1.1923930645e-06 1.1797859423e-06 1.0985170532e-06
          1.115098706e-06 1.0321669668e-06 1.0333361719e-06 1.0096321855e-06 1.0673473158e-06 1.1471807123e-06
          1.1429370374e-06 1.1043045335e-06 1.1152105861e-06 1.0695385919e-06 1.1159204471e-06 1.1008158547e-06
          1.1616213942e-06 1.0678760137e-06 1.0837167542e-06 1.0281043516e-06 1.0819748635e-06 1.0870751088e-06
          1.1693654686e-06 1.1173852051e-06 1.1047550996e-06 1.0532344392e-06 1.1243391088e-06 1.1076385142e-06
          1.1613949201e-06 1.1216754505e-06 1.1033172604e-06 1.1087318527e-06 1.0501113112e-06 1.0842720313e-06
          1.0829001925e-06 1.0771040656e-06 1.0743975735e-06 1.0410295946e-06 1.1381578745e-06 1.0755149139e-06
          1.1593907263e-06 1.1585276293e-06 1.0555405275e-06 1.1134255091e-06 1.110689074e-06 1.0257557915e-06
          1.1241315772e-06 1.1306099817e-06 1.0666895964e-06 1.1806950052e-06 1.1072749065e-06 1.1855129846e-06
          1.2212850776e-06 1.1294230073e-06 1.1715307737e-06 1.189475331e-06 1.0919592042e-06 1.1786422492e-06
          1.096446469e-06 1.2985571936e-06 1.2373487068e-06 1.1247984237e-06 1.1391137609e-06 1.310440828e-06
          1.2479196427e-06 1.2503653675e-06 1.1671632342e-06 1.2730031239e-06 1.3056906077e-06 1.0911073871e-06
          1.0567255377e-06 1.1361250632e-06 1.2632693629e-06 1.291085082e-06 1.0684076891e-06 1.2698542105e-06
          1.3392883732e-06 1.1329976841e-06 1.3284503083e-06 1.2225603162e-06 1.204278525e-06 1.3150921242e-06
          1.1711204289e-06 1.3241910088e-06 1.0971083153e-06 1.1159278765e-06 1.2770218866e-06 1.1136655843e-06
          1.1401185692e-06 1.1269020099e-06 1.2017244469e-06 1.3300752725e-06 1.2537169924e-06 1.2868559875e-06
          1.3229379063e-06 1.1679286005e-06 1.2139005408e-06 1.162959073e-06 1.324749405e-06 1.131906686e-06
          1.146983135e-06 1.0634593119e-06 1.2476857163e-06 1.3164886667e-06 1.2502041094e-06 1.2713262138e-06
          1.1316359857e-06 1.3236576621e-06 1.3167728707e-06 1.2395008533e-06 1.3299454155e-06 1.2619807274e-06
          1.1576365093e-06 1.1712098181e-06 1.3052858007e-06 1.2351295348e-06 1.3217216266e-06 1.3277561425e-06
          1.1377539125e-06 1.0729307839e-06 1.2843244625e-06 1.2866380386e-06 1.1448099325e-06 1.1847593549e-06
          1.1698313883e-06 1.3306901895e-06 1.3154852112e-06 1.206051502e-06 1.1302202619e-06 1.1944909474e-06
          1.3469472916e-06 1.267796559e-06 1.168467622e-06 1.2635403425e-06 1.1346633929e-06 1.3029651957e-06
          1.2863508757e-06 1.1987144766e-06 1.3594861835e-06 1.1426345229e-06 1.2294843071e-06 1.0768904362e-06
          1.3235019245e-06 1.1210293262e-06 1.191790375e-06 1.2482354684e-06 1.2831606182e-06 1.1561934486e-06
          1.1257938059e-06 1.1419504709e-06 1.0737260153e-06 1.2087220779e-06 1.2027115722e-06 1.2507145248e-06
          1.1394587457e-06 1.3315169725e-06 1.180949323e-06 1.3235442739e-06 1.0817765818e-06 1.1057229322e-06
          1.3471973458e-06 1.3393287656e-06 1.1394437543e-06 1.3416087317e-06 1.109166108e-06 1.0906594409e-06
          1.1202366049e-06 1.2317964499e-06 1.3593731977e-06 1.1742350494e-06 1.1471136238e-06 1.2383956616e-06
          1.3287076242e-06 1.2602906086e-06 1.2359791833e-06 1.1079437781e-06 1.139261088e-06 1.0705388594e-06
          1.1180101925e-06 1.2911044603e-06 1.2045867215e-06 1.3365067444e-06 1.2504393393e-06 1.1645175731e-06
          1.3510015528e-06 1.2456256532e-06 1.2917325631e-06 1.269379825e-06 1.1601043993e-06 1.3565294981e-06
          1.2655534266e-06 1.0812325481e-06 1.2256568201e-06 1.3020770993e-06 1.3347374957e-06 1.2633009661e-06
          1.2974188748e-06 1.3072680224e-06 1.2086603449e-06 1.1419578473e-06 1.3493294594e-06 1.1802501314e-06
          1.3141014591e-06 1.2712437827e-06 1.111938468e-06 1.2287514251e-06 1.0660612436e-06 1.1043947639e-06
          1.1109767605e-06 1.1446469685e-06 1.253113209e-06 1.1586417423e-06 1.2975704292e-06 1.1628223128e-06