<?xml version="1.0"?>
<VTKFile type="UnstructuredGrid" version="0.1" byte_order="LittleEndian" header_type="UInt32" compressor="vtkZLibDataCompressor">
  <UnstructuredGrid>
    <Piece NumberOfPoints="137" NumberOfCells="137">
      <PointData>
        <DataArray type="Int32" Name="id" format="ascii" RangeMin="1" RangeMax="137">
          8 6 5 11 12 13
          21 22 23 32 33 34
          44 45 46 47 48 49
          57 58 67 68 78 79
          80 81 82 83 94 95
          96 97 98 99 113 114
          115 116 117 118 9 4
          3 7 14 15 16 17
          24 25 26 30 31 35
          36 37 41 50 51 52
          53 54 59 60 61 62
          63 69 70 71 72 84
          85 86 87 88 89 100
          101 102 103 104 105 106
          107 119 120 121 122 123
          124 125 126 127 128 129
          130 10 1 18 19 27
          28 38 39 42 55 56
          64 73 74 75 76 77
          90 108 109 110 111 112
          131 132 133 2 20 29
          40 43 65 66 91 92
          93 134 135 136 137
        </DataArray>
        <DataArray type="Int32" Name="type" format="ascii" RangeMin="1" RangeMax="1">
          1 1 1 1 1 1
          1 1 1 1 1 1
          1 1 1 1 1 1
          1 1 1 1 1 1
          1 1 1 1 1 1
          1 1 1 1 1 1
          1 1 1 1 1 1
          1 1 1 1 1 1
          1 1 1 1 1 1
          1 1 1 1 1 1
          1 1 1 1 1 1
          1 1 1 1 1 1
          1 1 1 1 1 1
          1 1 1 1 1 1
          1 1 1 1 1 1
          1 1 1 1 1 1
          1 1 1 1 1 1
          1 1 1 1 1 1
          1 1 1 1 1 1
          1 1 1 1 1 1
          1 1 1 1 1 1
          1 1 1 1 1 1
          1 1 1 1 1
        </DataArray>
        <DataArray type="Float64" Name="diameter" format="ascii" RangeMin="1.0076049054e-06" RangeMax="1.3523357249e-06">
          1.287721e-06 1.2189005996e-06 1.3300485115e-06 1.0959537397e-06 1.2944018781e-06 1.2130480944e-06
          1.1493829836e-06 1.3293039256e-06 1.2389759256e-06 1.1071479469e-06 1.3039170566e-06 1.1004831705e-06
          1.121804838e-06 1.2401113178e-06 1.1893456061e-06 1.1236312091e-06 1.1952308798e-06 1.1122260435e-06
          1.3462580571e-06 1.0808425286e-06 1.3226215818e-06 1.0837258423e-06 1.2237855913e-06 1.2746187218e-06
          1.2314382018e-06 1.238445674e-06 1.3133943502e-06 1.1875281499e-06 1.2117578996e-06 1.1717858967e-06
          1.1752949771e-06 1.2159859603e-06 1.2314971547e-06 1.1141433378e-06 1.1432545982e-06 1.0982343573e-06
          1.0931583167e-06 1.1361965675e-06 1.1035561701e-06 1.0805215911e-06 1.0518128246e-06 1.2736448318e-06
          1.2102099775e-06 1.1614604151e-06 1.2612138126e-06 1.1069112489e-06 1.1557290592e-06 1.1291406108e-06
          1.1918062301e-06 1.1791245237e-06 1.3199184135e-06 1.1060457426e-06 1.1861110328e-06 1.2307601798e-06
          1.2891018216e-06 1.0920306872e-06 1.219331325e-06 1.2074191292e-06 1.190574174e-06 1.1704023312e-06
          1.1112477677e-06 1.197605128e-06 1.1254933708e-06 1.0211469257e-06 1.1202959268e-06 1.3496105927e-06
          1.1548821852e-06 1.0976654957e-06 1.2712595336e-06 1.1101885849e-06 1.2858354624e-06 1.2066013424e-06
          1.2894639549e-06 1.3052156813e-06 1.2360236821e-06 1.2708981114e-06 1.2168396482e-06 1.1318012449e-06
          1.2043756723e-06 1.2110368661e-06 1.1870540043e-06 1.2029242616e-06 1.2495832526e-06 1.18636189e-06
          1.1875043931e-06 1.128252319e-06 1.147444166e-06 1.0538709564e-06 1.1250939212e-06 1.1199773503e-06
          1.0666089215e-06 1.0622623542e-06 1.1563931049e-06 1.1418325127e-06 1.1203764993e-06 1.0975530968e-06
          1.1516000079e-06 1.2790667346e-06 1.1846909639e-06 1.1852296441e-06 1.1086271079e-06 1.170591274e-06
          1.1892448951e-06 1.0763194924e-06 1.3523357249e-06 1.0076049054e-06 1.1634243315e-06 1.3054299264e-06
          1.3229524237e-06 1.3363638991e-06 1.3379995862e-06 1.3074891702e-06 1.2384756105e-06 1.2732492732e-06
          1.2393574377e-06 1.1771018464e-06 1.1802284491e-06 1.2239861832e-06 1.1249759013e-06 1.2159668275e-06
          1.0547000861e-06 1.0988543863e-06 1.1513852292e-06 1.1818391674e-06 1.2578258446e-06 1.1769050534e-06
          1.1170642542e-06 1.2337321572e-06 1.1529736986e-06 1.1175848816e-06 1.3035997021e-06 1.2653865615e-06
          1.3464404914e-06 1.0464682044e-06 1.1671043441e-06 1.1312802782e-06 1.0662638797e-06
        </DataArray>
      </PointData>
      <CellData>
      </CellData>
      <Points>
        <DataArray type="Float32" Name="Points" NumberOfComponents="3" format="ascii" RangeMin="8.447555044e-05" RangeMax="0.00025521334504">
          5.2557807066e-05 4.7517994972e-05 5.0007907703e-05 2.8825408663e-05 6.3697909354e-05 5.0541297242e-05
          4.1613566282e-05 7.4094838055e-05 5.1361461374e-05 5.287962631e-05 4.609518146e-05 4.8156285629e-05
          2.9782962883e-05 6.3830149884e-05 5.0072951126e-05 4.2804382247e-05 7.5429088611e-05 5.0147846196e-05
          2.9367931347e-05 6.2820203311e-05 5.1033704949e-05 5.3102361562e-05 4.5091048378e-05 5.0322578318e-05
          4.1277664423e-05 7.4320181739e-05 4.8736030294e-05 5.2395876992e-05 4.7007772082e-05 4.8533638619e-05
          4.0908922529e-05 7.4958239566e-05 5.0428316172e-05 2.9599055779e-05 6.2180086388e-05 4.9356731324e-05
          2.9923492548e-05 6.3062572735e-05 4.9499427405e-05 5.3124345868e-05 4.5812459575e-05 4.9564245273e-05
          4.2717671022e-05 7.4950759881e-05 4.8995643738e-05 2.9371813071e-05 6.3580511778e-05 5.1804039686e-05
          5.2889510698e-05 4.6115812438e-05 5.1013226766e-05 4.2206422222e-05 7.368826482e-05 4.9430094805e-05
          5.3563999245e-05 4.6943423513e-05 5.0416616432e-05 3.0545084883e-05 6.2630933826e-05 4.9556536396e-05
          4.25211947e-05 7.3705683462e-05 5.051073822e-05 4.1961011448e-05 7.4836549175e-05 4.9440397561e-05
          5.1824390539e-05 4.7198762331e-05 5.0841819757e-05 2.9093866033e-05 6.4041654696e-05 4.91939536e-05
          3.081748946e-05 6.3512954512e-05 5.0038681366e-05 4.1683371819e-05 7.574295887e-05 5.0240847486e-05
          2.9241386073e-05 6.2377926952e-05 5.0168866437e-05 5.3835843573e-05 4.5881817641e-05 5.086321471e-05
          5.2336385124e-05 4.5516375394e-05 4.8898957175e-05 4.2431391194e-05 7.3751005402e-05 4.8694615543e-05
          5.4058600654e-05 4.6206965635e-05 4.9754493375e-05 4.1881452489e-05 7.5916148489e-05 4.8983245506e-05
          3.0006503948e-05 6.2527295086e-05 5.1870174502e-05 5.2294108173e-05 4.6028912038e-05 5.0085054681e-05
          5.2666993724e-05 4.6781180572e-05 4.9560425396e-05 3.0399420211e-05 6.1883612943e-05 4.8809961299e-05
          2.8861206374e-05 6.2817976868e-05 4.9243772082e-05 4.13759808e-05 7.3335868365e-05 4.9990801926e-05
          3.0204584618e-05 6.213690358e-05 5.0510112487e-05 4.1962794057e-05 7.4600902735e-05 5.0396909501e-05
          7.4830670201e-05 2.9923805414e-05 5.0293470849e-05 0.00010695272067 5.0524569815e-05 4.9425147154e-05
          0.00013814712293 6.125906657e-05 5.0303427997e-05 0.00010215200746 7.5479983934e-05 4.9708862207e-05
          7.6714139141e-05 2.8592581657e-05 4.9283517001e-05 0.00010909989214 5.1390787121e-05 5.0583206757e-05
          0.00013744422176 6.2012484705e-05 5.0636375818e-05 9.9883771327e-05 7.5927731814e-05 5.1484938012e-05
          0.00010702439613 5.2430681535e-05 5.07067125e-05 7.5981028203e-05 2.7952966775e-05 4.8840411182e-05
          0.00013907089306 6.2283143052e-05 4.8874186177e-05 0.0001013919682 7.6191310654e-05 4.9310110626e-05
          0.00010056272731 7.5328134699e-05 5.0973245379e-05 7.5315372669e-05 2.8734009902e-05 4.9245925766e-05
          0.00013929455599 6.1823055148e-05 5.0849965191e-05 0.00010751834634 5.1693630667e-05 4.9249429139e-05
          0.00013877617312 6.2101986259e-05 4.9840942665e-05 0.00010710406059 5.2531086112e-05 4.9142068747e-05
          7.6591160905e-05 2.8976664908e-05 5.0005495723e-05 0.00010799581651 5.1754006563e-05 5.2022664022e-05
          7.6334290497e-05 2.7916379622e-05 5.0866165111e-05 0.00010141588427 7.4395480624e-05 4.9410886277e-05
          7.5870928413e-05 2.9739345337e-05 5.079771654e-05 0.00010077226761 7.5885749538e-05 4.9859805586e-05
          0.00013807878713 6.2034043367e-05 4.8967121984e-05 0.00010144690168 7.6112613897e-05 5.0756250857e-05
          0.0001005332233 7.6114491094e-05 4.8951806093e-05 0.00013889523689 6.1055623519e-05 4.9078462325e-05
          0.00010869352991 5.2255651099e-05 5.0962164096e-05 0.00013842358021 6.1009024648e-05 5.196872371e-05
          0.00010890482372 5.1171977248e-05 4.9031783419e-05 0.00010798321455 5.0634182116e-05 4.9503560149e-05
          7.6177035226e-05 2.9622355214e-05 4.9093130656e-05 0.00010746229964 5.1207847719e-05 5.0584592827e-05
          0.00013853848213 6.218766066e-05 4.7947276471e-05 7.5504169217e-05 2.8618667784e-05 5.0424670917e-05
          0.00013966589177 6.1546183133e-05 4.9357524404e-05 0.00010107636626 7.5261996244e-05 4.9391568609e-05
          7.4964555097e-05 2.7638587198e-05 4.964726395e-05 0.00010008019308 7.4798204878e-05 5.1580249419e-05
          7.6397671364e-05 2.8846345231e-05 5.1061186241e-05 0.00010847066733 5.1243187045e-05 5.1181974413e-05
          7.6021075074e-05 2.7758018405e-05 4.9882353778e-05 0.00010105983529 7.454068691e-05 5.061230695e-05
          0.00013780928566 6.274691259e-05 4.985429041e-05 7.4688636232e-05 2.9681990782e-05 5.1352100854e-05
          0.00010838483286 5.1221664762e-05 4.9928439694e-05 0.00013840255269 6.2296981923e-05 5.1140879805e-05
          9.9810204119e-05 7.6256030297e-05 5.0332859246e-05 0.00010128319991 7.6219133916e-05 4.8174977564e-05
          0.00010808702064 5.1445138524e-05 4.8373076424e-05 0.0001072409068 5.1911862101e-05 5.0100876251e-05
          7.5786141679e-05 2.9659660868e-05 4.978178913e-05 0.00010039128392 7.5566334999e-05 5.0427355745e-05
          9.9404081993e-05 7.6114360127e-05 4.9087029765e-05 0.00013789000513 6.1321283283e-05 4.9206119002e-05
          0.00013858354941 6.1261162045e-05 5.0923521485e-05 0.00022022277699 6.1158723838e-05 4.889014599e-05
          0.00021737554925 7.8547789599e-05 5.0865521189e-05 0.00022109311249 6.0192702222e-05 5.0063339586e-05
          0.00021845534502 7.8796256275e-05 5.0354556151e-05 0.00021702502272 7.9571815149e-05 5.0871785788e-05
          0.00022192834876 6.0690243117e-05 5.0349586672e-05 0.00022074782464 6.1063925386e-05 5.0427774113e-05
          0.00021881842986 7.7394368418e-05 4.9611888244e-05 0.00021818804089 7.8850775026e-05 4.8985126341e-05
          0.00022102303046 6.0445847339e-05 4.9022601161e-05 0.00022046353843 5.9675126977e-05 5.0058712077e-05
          0.00021817989182 7.7808042988e-05 5.0659113185e-05 0.00022125331452 6.1462364101e-05 4.9684960686e-05
          0.00021907089103 7.8653785749e-05 4.9285208661e-05 0.00022073579021 6.1332320911e-05 5.1525767049e-05
          0.0002180137526 7.8321572801e-05 4.9507347285e-05 0.00021832024504 7.9569363152e-05 4.9422411394e-05
          0.00022142771923 5.9313879319e-05 5.0951184676e-05 0.00021795043722 7.8679004218e-05 5.1892609918e-05
          0.0002216965222 5.9810809034e-05 4.9206246331e-05 0.00021802872652 7.950708823e-05 5.0494923926e-05
          0.00022089977574 6.0578495322e-05 5.0978756917e-05 0.00022135197651 6.0640089941e-05 4.7944951802e-05
          0.00021949065558 7.8987701272e-05 5.0632730563e-05 0.00021971548267 6.1226339312e-05 5.0562957767e-05
          0.00021812180057 7.9011857451e-05 4.7973495384e-05 0.00024707251578 2.6724002964e-05 5.1078368415e-05
          0.00024734484032 2.5835541237e-05 5.0389717217e-05 0.00024835587828 2.6458119464e-05 4.8983423767e-05
          0.00024785799906 2.8041735277e-05 4.9178004701e-05 0.00024806763395 2.6253470423e-05 5.1247687225e-05
          0.00024879621924 2.6155379601e-05 5.0499395002e-05 0.0002475954243 2.7132282412e-05 4.8525787861e-05
          0.00024797627702 2.6737803637e-05 5.0242077123e-05 0.00024730432779 2.619397128e-05 4.9330512411e-05
          0.00024789836607 2.5197648938e-05 5.091654748e-05 0.00024880602723 2.5634544727e-05 4.8325859098e-05
          0.00024828885216 2.818811663e-05 5.023362246e-05 0.00024883274455 2.5986546461e-05 4.9458696594e-05
          0.00024772968027 2.7099176805e-05 4.9573205615e-05
        </DataArray>
      </Points>
      <Cells>
        <DataArray type="Int64" Name="connectivity" format="ascii" RangeMin="0" RangeMax="136">
          0 1 2 3 4 5
          6 7 8 9 10 11
          12 13 14 15 16 17
          18 19 20 21 22 23
          24 25 26 27 28 29
          30 31 32 33 34 35
          36 37 38 39 40 41
          42 43 44 45 46 47
          48 49 50 51 52 53
          54 55 56 57 58 59
          60 61 62 63 64 65
          66 67 68 69 70 71
          72 73 74 75 76 77
          78 79 80 81 82 83
          84 85 86 87 88 89
          90 91 92 93 94 95
          96 97 98 99 100 101
          102 103 104 105 106 107
          108 109 110 111 112 113
          114 115 116 117 118 119
          120 121 122 123 124 125
          126 127 128 129 130 131
          132 133 134 135 136
        </DataArray>
        <DataArray type="Int64" Name="offsets" format="ascii" RangeMin="1" RangeMax="137">
          1 2 3 4 5 6
          7 8 9 10 11 12
          13 14 15 16 17 18
          19 20 21 22 23 24
          25 26 27 28 29 30
          31 32 33 34 35 36
          37 38 39 40 41 42
          43 44 45 46 47 48
          49 50 51 52 53 54
          55 56 57 58 59 60
          61 62 63 64 65 66
          67 68 69 70 71 72
          73 74 75 76 77 78
          79 80 81 82 83 84
          85 86 87 88 89 90
          91 92 93 94 95 96
          97 98 99 100 101 102
          103 104 105 106 107 108
          109 110 111 112 113 114
          115 116 117 118 119 120
          121 122 123 124 125 126
          127 128 129 130 131 132
          133 134 135 136 137
        </DataArray>
        <DataArray type="UInt8" Name="types" format="ascii" RangeMin="1" RangeMax="1">
          1 1 1 1 1 1
          1 1 1 1 1 1
          1 1 1 1 1 1
          1 1 1 1 1 1
          1 1 1 1 1 1
          1 1 1 1 1 1
          1 1 1 1 1 1
          1 1 1 1 1 1
          1 1 1 1 1 1
          1 1 1 1 1 1
          1 1 1 1 1 1
          1 1 1 1 1 1
          1 1 1 1 1 1
          1 1 1 1 1 1
          1 1 1 1 1 1
          1 1 1 1 1 1
          1 1 1 1 1 1
          1 1 1 1 1 1
          1 1 1 1 1 1
          1 1 1 1 1 1
          1 1 1 1 1 1
          1 1 1 1 1 1
          1 1 1 1 1
        </DataArray>
      </Cells>
    </Piece>
  </UnstructuredGrid>
</VTKFile>
