<?xml version="1.0"?>
<VTKFile type="UnstructuredGrid" version="0.1" byte_order="LittleEndian" header_type="UInt32" compressor="vtkZLibDataCompressor">
  <UnstructuredGrid>
    <Piece NumberOfPoints="43" NumberOfCells="43">
      <PointData>
        <DataArray type="Int32" Name="id" format="ascii" RangeMin="1" RangeMax="43">
          8 6 5 11 12 13
          21 22 23 32 33 34
          9 4 3 7 14 15
          16 17 24 25 26 30
          31 35 36 37 41 10
          1 18 19 27 28 38
          39 42 2 20 29 40
          43
        </DataArray>
        <DataArray type="Int32" Name="type" format="ascii" RangeMin="1" RangeMax="1">
          1 1 1 1 1 1
          1 1 1 1 1 1
          1 1 1 1 1 1
          1 1 1 1 1 1
          1 1 1 1 1 1
          1 1 1 1 1 1
          1 1 1 1 1 1
          1
        </DataArray>
        <DataArray type="Float64" Name="diameter" format="ascii" RangeMin="1.052725411e-06" RangeMax="1.3549108552e-06">
          1.1017375607e-06 1.307420211e-06 1.1659981385e-06 1.3098784536e-06 1.1106182285e-06 1.3451357057e-06
          1.3388222228e-06 1.3412666238e-06 1.2923166706e-06 1.2152455221e-06 1.1730068845e-06 1.2134273033e-06
          1.2279067085e-06 1.3094397891e-06 1.1436109246e-06 1.2308255346e-06 1.3549108552e-06 1.1778427077e-06
          1.2519210946e-06 1.2070537646e-06 1.3408174478e-06 1.3019026773e-06 1.1211605509e-06 1.2382239542e-06
          1.317537992e-06 1.091817326e-06 1.1948402011e-06 1.1556813722e-06 1.0696753493e-06 1.1473546669e-06
          1.2393331447e-06 1.3098404573e-06 1.1872433838e-06 1.052725411e-06 1.3413005993e-06 1.1748483351e-06
          1.1406242585e-06 1.1611838312e-06 1.0891947053e-06 1.103117017e-06 1.239116608e-06 1.2286527824e-06
          1.1296120132e-06
        </DataArray>
      </PointData>
      <CellData>
      </CellData>
      <Points>
        <DataArray type="Float32" Name="Points" NumberOfComponents="3" format="ascii" RangeMin="8.5009640503e-05" RangeMax="0.00025471825157">
          5.22856717e-05 4.7024139349e-05 5.0602007832e-05 2.9230795917e-05 6.3232051616e-05 4.9903970648e-05
          4.195924339e-05 7.3849747423e-05 5.0929749705e-05 5.3024552471e-05 4.5844812121e-05 4.9217116612e-05
          3.0135455745e-05 6.3476087234e-05 4.9595586461e-05 4.224316217e-05 7.5534684584e-05 4.9559635954e-05
          2.9358370739e-05 6.3094768848e-05 5.1134233217e-05 5.3107694839e-05 4.5922060963e-05 5.049459287e-05
          4.1885981773e-05 7.4188341387e-05 4.9390495406e-05 5.2901199524e-05 4.6981662308e-05 4.9645303079e-05
          4.174978676e-05 7.4564108218e-05 5.011655594e-05 2.9945058486e-05 6.227313861e-05 4.9517559091e-05
          7.5287054642e-05 2.9758944947e-05 5.0550239393e-05 0.00010749098146 5.1646922657e-05 4.9807673349e-05
          0.00013826791837 6.1256512708e-05 4.9839978601e-05 0.00010093172023 7.5409247074e-05 4.9852314987e-05
          7.6419652032e-05 2.9005292163e-05 4.9924266932e-05 0.00010840448522 5.1419796364e-05 5.0207050663e-05
          0.00013827615476 6.2341023295e-05 5.0104183174e-05 0.00010085672693 7.6117961726e-05 5.0640624977e-05
          0.00010767960339 5.171023804e-05 5.1123603043e-05 7.5851588917e-05 2.7751926609e-05 4.9843154557e-05
          0.00013887364184 6.2274382799e-05 4.8471814807e-05 0.00010071349971 7.5921561802e-05 4.8886198783e-05
          0.00010068184929 7.4830626545e-05 5.0578812079e-05 7.5575604569e-05 2.8950116757e-05 4.9717134971e-05
          0.00013871614647 6.1440485297e-05 5.0944636314e-05 0.00010836813453 5.1309849368e-05 4.8981371947e-05
          0.0001391167898 6.2115053879e-05 4.9546128139e-05 0.00022066518432 6.1195969465e-05 4.9602971558e-05
          0.00021791465406 7.8275916167e-05 5.0936509069e-05 0.00022121099755 6.019986904e-05 4.9216836487e-05
          0.00021893932717 7.8957396909e-05 4.966022243e-05 0.00021774611378 7.9250399722e-05 5.0521190133e-05
          0.00022120296489 6.0025256971e-05 5.0462844229e-05 0.00022072788852 6.127756933e-05 5.0721540902e-05
          0.00021846372692 7.7889257227e-05 4.9513804697e-05 0.00021823112911 7.9132987594e-05 4.9482649047e-05
          0.00024763244437 2.6773235732e-05 5.0497772463e-05 0.00024778966326 2.6173622246e-05 4.9757971283e-05
          0.00024854316143 2.592191413e-05 4.9353206123e-05 0.00024778969237 2.7542331736e-05 4.9707876315e-05
          0.00024786381982 2.6043284379e-05 5.0975639169e-05
        </DataArray>
      </Points>
      <Cells>
        <DataArray type="Int64" Name="connectivity" format="ascii" RangeMin="0" RangeMax="42">
          0 1 2 3 4 5
          6 7 8 9 10 11
          12 13 14 15 16 17
          18 19 20 21 22 23
          24 25 26 27 28 29
          30 31 32 33 34 35
          36 37 38 39 40 41
          42
        </DataArray>
        <DataArray type="Int64" Name="offsets" format="ascii" RangeMin="1" RangeMax="43">
          1 2 3 4 5 6
          7 8 9 10 11 12
          13 14 15 16 17 18
          19 20 21 22 23 24
          25 26 27 28 29 30
          31 32 33 34 35 36
          37 38 39 40 41 42
          43
        </DataArray>
        <DataArray type="UInt8" Name="types" format="ascii" RangeMin="1" RangeMax="1">
          1 1 1 1 1 1
          1 1 1 1 1 1
          1 1 1 1 1 1
          1 1 1 1 1 1
          1 1 1 1 1 1
          1 1 1 1 1 1
          1 1 1 1 1 1
          1
        </DataArray>
      </Cells>
    </Piece>
  </UnstructuredGrid>
</VTKFile>
