<?xml version="1.0"?>
<VTKFile type="UnstructuredGrid" version="0.1" byte_order="LittleEndian" header_type="UInt32" compressor="vtkZLibDataCompressor">
  <UnstructuredGrid>
    <Piece NumberOfPoints="312" NumberOfCells="312">
      <PointData>
        <DataArray type="Int32" Name="id" format="ascii" RangeMin="1" RangeMax="312">
          8 6 5 11 12 13
          21 22 23 32 33 34
          44 45 46 47 48 49
          57 58 67 68 78 79
          80 81 82 83 94 95
          96 97 98 99 113 114
          115 116 117 118 138 139
          140 141 142 143 144 145
          160 161 162 163 164 165
          166 167 168 189 190 191
          192 193 194 195 196 229
          230 231 232 233 234 235
          236 237 238 239 240 241
          242 243 274 275 276 277
          278 279 280 281 282 283
          284 285 286 287 9 4
          3 7 14 15 16 17
          24 25 26 30 31 35
          36 37 41 50 51 52
          53 54 59 60 61 62
          63 69 70 71 72 84
          85 86 87 88 89 100
          101 102 103 104 105 106
          107 119 120 121 122 123
          124 125 126 127 128 129
          130 146 147 148 149 150
          151 169 170 171 172 173
          174 175 176 177 178 179
          197 198 199 200 201 202
          203 204 205 206 207 208
          209 210 211 212 213 214
          215 216 244 245 246 247
          248 249 250 251 252 253
          254 255 256 257 258 259
          260 261 288 289 290 291
          292 293 294 295 296 297
          298 299 300 301 10 1
          18 19 27 28 38 39
          42 55 56 64 73 74
          75 76 77 90 108 109
          110 111 112 131 132 133
          152 153 154 155 156 157
          180 181 182 183 184 185
          217 218 219 220 221 222
          223 224 262 263 264 265
          266 267 268 302 303 304
          305 306 307 308 2 20
          29 40 43 65 66 91
          92 93 134 135 136 137
          158 159 186 187 188 225
          226 227 228 269 270 271
          272 273 309 310 311 312
        </DataArray>
        <DataArray type="Int32" Name="type" format="ascii" RangeMin="1" RangeMax="1">
          1 1 1 1 1 1
          1 1 1 1 1 1
          1 1 1 1 1 1
          1 1 1 1 1 1
          1 1 1 1 1 1
          1 1 1 1 1 1
          1 1 1 1 1 1
          1 1 1 1 1 1
          1 1 1 1 1 1
          1 1 1 1 1 1
          1 1 1 1 1 1
          1 1 1 1 1 1
          1 1 1 1 1 1
          1 1 1 1 1 1
          1 1 1 1 1 1
          1 1 1 1 1 1
          1 1 1 1 1 1
          1 1 1 1 1 1
          1 1 1 1 1 1
          1 1 1 1 1 1
          1 1 1 1 1 1
          1 1 1 1 1 1
          1 1 1 1 1 1
          1 1 1 1 1 1
          1 1 1 1 1 1
          1 1 1 1 1 1
          1 1 1 1 1 1
          1 1 1 1 1 1
          1 1 1 1 1 1
          1 1 1 1 1 1
          1 1 1 1 1 1
          1 1 1 1 1 1
          1 1 1 1 1 1
          1 1 1 1 1 1
          1 1 1 1 1 1
          1 1 1 1 1 1
          1 1 1 1 1 1
          1 1 1 1 1 1
          1 1 1 1 1 1
          1 1 1 1 1 1
          1 1 1 1 1 1
          1 1 1 1 1 1
          1 1 1 1 1 1
          1 1 1 1 1 1
          1 1 1 1 1 1
          1 1 1 1 1 1
          1 1 1 1 1 1
          1 1 1 1 1 1
          1 1 1 1 1 1
          1 1 1 1 1 1
          1 1 1 1 1 1
          1 1 1 1 1 1
        </DataArray>
        <DataArray type="Float64" Name="diameter" format="ascii" RangeMin="1.0246867885e-06" RangeMax="1.3522469621e-06">
          1.3284810408e-06 1.269916067e-06 1.302296668e-06 1.179542657e-06 1.0630480561e-06 1.2513409863e-06
          1.2310417806e-06 1.3498298589e-06 1.3081918541e-06 1.133992287e-06 1.311596067e-06 1.2103550949e-06
          1.1619254397e-06 1.1241049803e-06 1.1893233491e-06 1.1241752078e-06 1.3131076695e-06 1.1644025972e-06
          1.0821443014e-06 1.1734831875e-06 1.1386538142e-06 1.1167482111e-06 1.292333986e-06 1.2822072682e-06
          1.3103882385e-06 1.2926569695e-06 1.1517588267e-06 1.2741991231e-06 1.3196051789e-06 1.191693893e-06
          1.2600998062e-06 1.2454947119e-06 1.0990218626e-06 1.212952269e-06 1.2230223899e-06 1.1527752628e-06
          1.0795053138e-06 1.1952874978e-06 1.1929668247e-06 1.0994478615e-06 1.0807145478e-06 1.139677763e-06
          1.050530937e-06 1.1543434791e-06 1.1571678383e-06 1.0990698649e-06 1.3140246495e-06 1.0934203093e-06
          1.2859117639e-06 1.2777379968e-06 1.210180308e-06 1.3278142275e-06 1.2045517627e-06 1.271236327e-06
          1.2925246039e-06 1.3179879316e-06 1.2196357513e-06 1.2804891304e-06 1.1779440071e-06 1.2893358666e-06
          1.1823639915e-06 1.2103371551e-06 1.2292029263e-06 1.2528122263e-06 1.1989459523e-06 1.1353108209e-06
          1.1889110204e-06 1.0910987667e-06 1.1900645706e-06 1.238392212e-06 1.1572811784e-06 1.148789009e-06
          1.1155179724e-06 1.1692566338e-06 1.1501230641e-06 1.2057943412e-06 1.1763032054e-06 1.1187111501e-06
          1.1843877036e-06 1.174924876e-06 1.1265268917e-06 1.0574070126e-06 1.1135128491e-06 1.0898639494e-06
          1.1451093744e-06 1.0314586037e-06 1.0768648685e-06 1.1547220453e-06 1.0890858249e-06 1.1102435065e-06
          1.1162856677e-06 1.0729984618e-06 1.0885469803e-06 1.0625148924e-06 1.1859038426e-06 1.1412083113e-06
          1.2953768413e-06 1.2311376238e-06 1.308729715e-06 1.2459697567e-06 1.1401171157e-06 1.1619021604e-06
          1.2840362159e-06 1.2949958085e-06 1.1881857657e-06 1.1273308538e-06 1.231207649e-06 1.3374972593e-06
          1.3344515323e-06 1.1937503184e-06 1.296713345e-06 1.2554211206e-06 1.2242461431e-06 1.2151791519e-06
          1.1976837481e-06 1.3055406373e-06 1.217040145e-06 1.0683199086e-06 1.1949173812e-06 1.1289749693e-06
          1.2141763584e-06 1.1085620951e-06 1.124086733e-06 1.1283055805e-06 1.3100608877e-06 1.329527403e-06
          1.1666948378e-06 1.1517253422e-06 1.3104434523e-06 1.279054161e-06 1.2783841872e-06 1.1355811685e-06
          1.2740910809e-06 1.2926982181e-06 1.3367788378e-06 1.2920865549e-06 1.0806700282e-06 1.224551817e-06
          1.2389449339e-06 1.2602789836e-06 1.185572158e-06 1.0573481115e-06 1.2114578962e-06 1.1930237919e-06
          1.1853072089e-06 1.1787553696e-06 1.247159104e-06 1.2527866011e-06 1.2618296095e-06 1.0906974638e-06
          1.2088444436e-06 1.2850444149e-06 1.0246867885e-06 1.0860758852e-06 1.091687148e-06 1.2977152549e-06
          1.3522469621e-06 1.3133102769e-06 1.0590798124e-06 1.2725872327e-06 1.2568580283e-06 1.3239771167e-06
          1.2884051526e-06 1.3275782278e-06 1.1105229394e-06 1.2705656636e-06 1.3012500188e-06 1.2810381312e-06
          1.2384302834e-06 1.2283051363e-06 1.2734969888e-06 1.2636423617e-06 1.2210210882e-06 1.2795083377e-06
          1.3087405031e-06 1.2934347347e-06 1.2280773143e-06 1.2493721719e-06 1.2336512487e-06 1.3064481555e-06
          1.1908896448e-06 1.2660372513e-06 1.2861155387e-06 1.2485418726e-06 1.2529605208e-06 1.2060412333e-06
          1.1688392368e-06 1.2034566741e-06 1.0990490097e-06 1.2551173119e-06 1.1482585874e-06 1.2282107512e-06
          1.128401841e-06 1.1843434428e-06 1.1703672279e-06 1.1509996808e-06 1.2033747466e-06 1.1880255767e-06
          1.2258566139e-06 1.1201429689e-06 1.2550998944e-06 1.1264098115e-06 1.2007052146e-06 1.1965494701e-06
          1.1358262148e-06 1.2029229345e-06 1.0359956387e-06 1.0705365635e-06 1.0937077471e-06 1.1444861785e-06
          1.1072168207e-06 1.1278134892e-06 1.146635886e-06 1.0863750577e-06 1.0861916623e-06 1.1371328084e-06
          1.13218107e-06 1.1606710114e-06 1.1230716924e-06 1.1296592235e-06 1.1114519709e-06 1.2413291945e-06
          1.2324279706e-06 1.1619925684e-06 1.1489575019e-06 1.2606327223e-06 1.114433031e-06 1.1750771816e-06
          1.3282319921e-06 1.1907438418e-06 1.3134055829e-06 1.1979915034e-06 1.1616558842e-06 1.0858663751e-06
          1.3135683905e-06 1.2746515496e-06 1.3434660197e-06 1.3402656521e-06 1.1869171772e-06 1.23337883e-06
          1.2668132761e-06 1.2577211089e-06 1.2912049185e-06 1.1272675983e-06 1.1617090146e-06 1.2901209344e-06
          1.3309843286e-06 1.0909158158e-06 1.3445332718e-06 1.042670306e-06 1.178891325e-06 1.1597276785e-06
          1.3146172969e-06 1.3162208802e-06 1.3307880651e-06 1.3060404933e-06 1.2941154402e-06 1.3133415211e-06
          1.2376589576e-06 1.2754255103e-06 1.292160229e-06 1.2487977749e-06 1.2621785989e-06 1.2905371404e-06
          1.282481353e-06 1.1606761832e-06 1.1578281418e-06 1.1898783003e-06 1.1346132892e-06 1.1065169946e-06
          1.1936030271e-06 1.2223686223e-06 1.1250772185e-06 1.1113381603e-06 1.1560027772e-06 1.0488462849e-06
          1.111160032e-06 1.0786458533e-06 1.1303504834e-06 1.0615113177e-06 1.224632956e-06 1.1136835367e-06
          1.2850997063e-06 1.1840061704e-06 1.3135015311e-06 1.1994899781e-06 1.1012696421e-06 1.2052473422e-06
          1.345522612e-06 1.1106681885e-06 1.100194195e-06 1.2849934604e-06 1.2353933853e-06 1.0765958407e-06
          1.3190051601e-06 1.1295936615e-06 1.2982551878e-06 1.3058553568e-06 1.3380092756e-06 1.2804929022e-06
          1.2156505413e-06 1.251206791e-06 1.2234481009e-06 1.2127393413e-06 1.2638662321e-06 1.0773600469e-06
          1.2272778953e-06 1.1683976386e-06 1.05547514e-06 1.1248376317e-06 1.1799465019e-06 1.0529591175e-06
        </DataArray>
      </PointData>
      <CellData>
      </CellData>
      <Points>
        <DataArray type="Float32" Name="Points" NumberOfComponents="3" format="ascii" RangeMin="8.3997128048e-05" RangeMax="0.00025575119258">
          5.2295599744e-05 4.8079826229e-05 5.0642029237e-05 2.8458880479e-05 6.3825253164e-05 5.1241011533e-05
          4.1809205868e-05 7.4202136602e-05 5.1820203225e-05 5.2657764172e-05 4.5784199756e-05 4.7636131058e-05
          3.0016666642e-05 6.4604872023e-05 4.9173799198e-05 4.3129541154e-05 7.5189462223e-05 5.0669677876e-05
          2.93665762e-05 6.3063314883e-05 5.154754399e-05 5.3474530432e-05 4.4608823373e-05 5.0131286116e-05
          4.0789313061e-05 7.4446768849e-05 4.9187292461e-05 5.1801704103e-05 4.6975794248e-05 4.8434107157e-05
          4.0771847125e-05 7.5078511145e-05 4.9895512348e-05 3.009230204e-05 6.1329665186e-05 4.8873745982e-05
          3.0190576581e-05 6.3062339905e-05 4.8630379752e-05 5.3269279306e-05 4.5898013923e-05 4.8621976021e-05
          4.2796167691e-05 7.5313415437e-05 4.8413698096e-05 2.9472041206e-05 6.3694351411e-05 5.2348575991e-05
          5.2926796343e-05 4.6190823923e-05 5.1755214372e-05 4.2240233597e-05 7.4107330875e-05 4.9122780183e-05
          5.3844170907e-05 4.7000314225e-05 5.1590410294e-05 3.097818626e-05 6.2380240706e-05 4.8797050113e-05
          4.2512543587e-05 7.3059753049e-05 5.0887003454e-05 4.1977738874e-05 7.4935007433e-05 4.9713216868e-05
          5.1838713262e-05 4.7103058023e-05 5.1370214351e-05 2.9391592761e-05 6.43678286e-05 4.8549060011e-05
          3.1376283005e-05 6.3544721343e-05 5.0037906476e-05 4.2081119318e-05 7.5610769272e-05 5.0315054978e-05
          2.8944419682e-05 6.1485457991e-05 5.1272996643e-05 5.4203126638e-05 4.5562552259e-05 5.1276609156e-05
          5.1855677157e-05 4.5539618441e-05 4.8228546802e-05 4.3017393182e-05 7.4310490163e-05 4.8637837608e-05
          5.4655109125e-05 4.6696186473e-05 4.9631591537e-05 4.1505216359e-05 7.5929441664e-05 4.9492395192e-05
          3.0512168451e-05 6.231100997e-05 5.1755185268e-05 5.1980903663e-05 4.573748447e-05 4.9374535593e-05
          5.2203715313e-05 4.6627032134e-05 5.0050126447e-05 3.0809544114e-05 6.1593484133e-05 4.9306239816e-05
          2.9092154364e-05 6.2457489548e-05 4.8815847549e-05 4.113491741e-05 7.3380935646e-05 4.9338330427e-05
          2.978469638e-05 6.1944308982e-05 5.0653947255e-05 4.191570406e-05 7.4457428127e-05 5.0169728638e-05
          5.2899351431e-05 4.7962086683e-05 4.9060909078e-05 4.1535000491e-05 7.3614559369e-05 5.0768889196e-05
          2.9923534385e-05 6.449069042e-05 5.0285289035e-05 5.2651521401e-05 4.4745178457e-05 5.0397837185e-05
          4.1052477172e-05 7.4961790233e-05 5.0748891226e-05 5.3973984905e-05 4.7464047384e-05 4.9859136197e-05
          4.3202566303e-05 7.3823772254e-05 5.068093742e-05 2.902824599e-05 6.2413608248e-05 4.968772555e-05
          2.8945954909e-05 6.3537168899e-05 5.0213951909e-05 4.1495091864e-05 7.4175703048e-05 4.8145902838e-05
          5.3264127928e-05 4.5668024541e-05 5.014881026e-05 5.1418286603e-05 4.7238245315e-05 5.0121358072e-05
          2.8357737392e-05 6.4287880377e-05 4.9872760428e-05 3.0295690522e-05 6.3188766944e-05 5.0253001973e-05
          4.0863131289e-05 7.5931107858e-05 5.0537873904e-05 4.1972107283e-05 7.6074851677e-05 4.8388854339e-05
          2.9997978345e-05 6.2702558353e-05 5.2404197049e-05 4.2873649363e-05 7.5718344306e-05 4.9421669246e-05
          2.9426286346e-05 6.2799386797e-05 5.0728929637e-05 4.3092226406e-05 7.4580973887e-05 4.9764428695e-05
          5.2886149206e-05 4.6926656069e-05 5.0857885071e-05 5.3803309129e-05 4.622947381e-05 5.0714035751e-05
          5.2489689551e-05 4.5026710723e-05 4.9411675718e-05 4.2249153921e-05 7.3447612522e-05 4.8043719289e-05
          5.4188156355e-05 4.5679935283e-05 4.9936603318e-05 5.3573159676e-05 4.6432498493e-05 4.8067773605e-05
          5.2924078773e-05 4.7204346629e-05 4.809195525e-05 2.9861275834e-05 6.2031722337e-05 4.9653874157e-05
          2.965056774e-05 6.3099018007e-05 4.9452311941e-05 2.9784076105e-05 6.4522479079e-05 5.1459595852e-05
          4.2069950723e-05 7.3662391515e-05 4.9954931455e-05 4.1902949306e-05 7.2699171142e-05 4.9635171308e-05
          5.2197487094e-05 4.5738215704e-05 5.0590610044e-05 5.2478721045e-05 4.6708191803e-05 4.9002639571e-05
          3.0762421375e-05 6.2097918999e-05 4.8186717322e-05 2.8537435355e-05 6.3114770455e-05 4.8357589549e-05
          4.1590850742e-05 7.2757407906e-05 5.0629991165e-05 3.0651550333e-05 6.1737962824e-05 5.0274553359e-05
          4.0717513912e-05 7.414349966e-05 5.1187787903e-05 5.3297309933e-05 4.6742919949e-05 4.9853908422e-05
          2.9986122172e-05 6.3882645918e-05 4.9956444855e-05 5.3089483117e-05 4.6073288104e-05 4.9559566833e-05
          5.4030919273e-05 4.716571857e-05 5.0585702411e-05 3.1121820939e-05 6.2544982939e-05 4.9876387493e-05
          4.1905288526e-05 7.4934345321e-05 4.8794314353e-05 2.8998918424e-05 6.1458944401e-05 5.0120812375e-05
          3.0507613701e-05 6.2673250795e-05 5.0865011872e-05 4.2326330004e-05 7.46336882e-05 5.1106155297e-05
          5.2745075664e-05 4.7403722419e-05 4.9973637942e-05 2.952471732e-05 6.3838866481e-05 5.1166651247e-05
          5.2999341278e-05 4.5259668696e-05 5.1444603741e-05 4.0657385398e-05 7.5167816249e-05 5.1719049225e-05
          2.8506749004e-05 6.2323400925e-05 5.0454713346e-05 2.8416059649e-05 6.3952400524e-05 4.8843980039e-05
          7.4826923083e-05 3.0449780752e-05 5.0219827244e-05 0.0001063487216 5.1222225011e-05 4.8443762353e-05
          0.00013759043941 6.0680762545e-05 5.0770613598e-05 0.00010253237997 7.5202515291e-05 5.0232640206e-05
          7.7308381151e-05 2.9027241908e-05 4.928472481e-05 0.00010981142987 5.141471047e-05 5.1334151067e-05
          0.00013744036551 6.163494254e-05 5.1200055168e-05 9.9717275589e-05 7.6280448411e-05 5.1759703638e-05
          0.00010667469178 5.242370753e-05 5.0357266446e-05 7.4856645369e-05 2.8431921237e-05 4.8391582823e-05
          0.00013908065739 6.2279621488e-05 4.8369569413e-05 0.00010139562073 7.6741554949e-05 4.8809899454e-05
          0.00010122774256 7.5078452937e-05 5.1058173995e-05 7.5584765e-05 2.9122367778e-05 4.8794267059e-05
          0.00013944144303 6.1821032432e-05 5.1573406381e-05 0.00010723079322 5.1820643421e-05 4.9333870265e-05
          0.00013826474606 6.1853774241e-05 4.9939262681e-05 0.00010647870658 5.2514922572e-05 4.9108686653e-05
          7.7069962572e-05 2.9630127756e-05 5.0457449106e-05 0.00010814024427 5.1854523917e-05 5.154304381e-05
          7.6106822235e-05 2.798026253e-05 5.1654955314e-05 0.00010170094902 7.4410279922e-05 4.8756668548e-05
          7.5749579992e-05 3.0149207305e-05 5.1397855714e-05 0.00010083811503 7.5804440712e-05 4.9516078434e-05
          0.00013845137437 6.2573592004e-05 4.9195750762e-05 0.00010108752758 7.6736119809e-05 5.0728682254e-05
          0.00010040487541 7.666752208e-05 4.9184167437e-05 0.00013933495211 6.0715839936e-05 4.854510189e-05
          0.00010896370077 5.2754701755e-05 5.066542144e-05 0.00013854072313 6.1378341343e-05 5.2558509196e-05
          0.00010882083734 5.1456921938e-05 4.8414065532e-05 0.00010774721159 5.0274269597e-05 4.8588928621e-05
          7.6314267062e-05 2.9471173548e-05 4.9744281569e-05 0.00010694775119 5.0370894314e-05 5.1336584875e-05
          0.00013860364561 6.2097540649e-05 4.7328190703e-05 7.5261232269e-05 2.8380125514e-05 5.1089882618e-05
          0.00014005045523 6.1741367972e-05 4.8829548177e-05 0.00010050768469 7.538999489e-05 4.8907928431e-05
          7.4949297414e-05 2.7519317882e-05 5.0275302783e-05 0.00010025372467 7.4910094554e-05 5.2218321798e-05
          7.6255026215e-05 2.8785118047e-05 5.2181170759e-05 0.00010883260984 5.089588376e-05 5.2096285799e-05
          7.655146328e-05 2.7547326681e-05 4.9190439313e-05 0.0001006448656 7.4220253737e-05 5.0175454817e-05
          0.0001378426532 6.3254919951e-05 4.9089565437e-05 7.5109615864e-05 2.9474938856e-05 5.1899292885e-05
          0.00010854970606 5.1771286962e-05 4.9519938329e-05 0.00013888097601 6.2700280978e-05 5.1366099797e-05
          9.9570439488e-05 7.6118099969e-05 5.0098238717e-05 0.00010099499923 7.5945419667e-05 4.8147368943e-05
          0.00010790269152 5.1186831115e-05 4.8190504458e-05 0.00010780902812 5.274598152e-05 5.0488313718e-05
          7.5498028309e-05 3.0003588108e-05 4.9187601689e-05 0.0001002281133 7.5004609243e-05 4.9734186177e-05
          9.8731507023e-05 7.6012147474e-05 4.9104153732e-05 0.00013778571156 6.0892438341e-05 4.8320387577e-05
          0.00013901450438 6.1301434471e-05 5.0568785809e-05 0.00013931478315 6.2260784034e-05 4.9378133554e-05
          0.00014015640772 6.1620004999e-05 5.0697701226e-05 0.0001015322996 7.5657764683e-05 5.0054990425e-05
          0.00010900614143 5.0792845286e-05 4.9822065193e-05 7.6074655226e-05 2.996963849e-05 4.8232992413e-05
          0.00010704523447 5.1260740292e-05 5.0283655582e-05 0.00010704653687 5.0183542044e-05 4.9897331337e-05
          7.6281765359e-05 2.854340164e-05 4.8845235142e-05 7.4744333688e-05 2.830167432e-05 4.9419606512e-05
          0.00013884132204 6.2929175328e-05 5.0222432037e-05 0.00010752819071 5.2677722124e-05 4.8782210797e-05
          0.00010822817421 5.2863117162e-05 5.1684532082e-05 0.00013759871945 6.2108389102e-05 4.7909277782e-05
          7.5568153989e-05 2.8672155167e-05 4.9927566579e-05 0.00013959646458 6.1063481553e-05 4.9724007113e-05
          9.9647484603e-05 7.4702547863e-05 5.1339986385e-05 7.6187578088e-05 2.7614294595e-05 5.0275913964e-05
          0.0001382483606 6.0807629779e-05 4.9864949688e-05 0.00010245869635 7.5551230111e-05 4.9092770496e-05
          0.00013686163584 6.2162405811e-05 5.0412603741e-05 0.00010710778588 5.2033763495e-05 5.1327489928e-05
          7.6036594692e-05 2.7774598493e-05 4.8086192692e-05 0.00010065623064 7.5808442489e-05 5.1715400332e-05
          7.6503383752e-05 2.8543601729e-05 5.007742584e-05 0.00010795405979 5.1494611398e-05 5.2542814956e-05
          0.00010173963528 7.4382871389e-05 5.0123442634e-05 0.00010034213483 7.6824297139e-05 4.8121532018e-05
          0.00010804127669 5.06171491e-05 4.968504436e-05 7.5142605056e-05 2.7071400837e-05 4.8880639952e-05
          7.657007518e-05 2.8832537282e-05 5.1036986406e-05 0.0001087631972 5.0866612582e-05 5.1010491006e-05
          0.00010122109234 7.4330411735e-05 5.1420800446e-05 0.00013777318236 6.2762963353e-05 5.0207945606e-05
          0.00010819145245 5.143933231e-05 5.0459540944e-05 7.5660333096e-05 3.0455714295e-05 5.0316586567e-05
          9.9934753962e-05 7.5466385169e-05 5.0753082178e-05 0.00013864033099 6.1162434577e-05 5.1440183597e-05
          0.00010976479098 5.1127786719e-05 5.0036167522e-05 9.9035707535e-05 7.5393050793e-05 5.1582654123e-05
          0.0001394241408 6.1430815549e-05 4.7891167924e-05 0.00010172817565 7.6655123848e-05 4.9801910791e-05
          0.00010739708523 5.1411858294e-05 4.8684996727e-05 7.682623982e-05 2.7366490031e-05 5.0955368351e-05
          7.5786934758e-05 2.9443795938e-05 5.0629147154e-05 0.00013767241035 6.1975188146e-05 4.8846188292e-05
          0.00010155414202 7.6346361311e-05 5.1683673519e-05 0.00013862753985 6.1303137045e-05 4.9041063903e-05
          0.00013786776981 6.088439477e-05 5.1934457588e-05 7.660996198e-05 2.997205047e-05 4.902744331e-05
          0.00010144220869 7.5049676525e-05 4.9266229325e-05 7.4332892837e-05 2.9546163205e-05 5.1068607718e-05
          0.00010016264423 7.6547294157e-05 5.0842241762e-05 0.00010207012383 7.6301330409e-05 4.8291054554e-05
          9.9774741102e-05 7.5952892075e-05 4.9270063755e-05 0.00013733581 6.0949147155e-05 4.9376765674e-05
          7.473736332e-05 2.9436816476e-05 4.9875638069e-05 0.00010670218035 5.0334027037e-05 4.8960857384e-05
          0.00010074386955 7.5864627433e-05 5.0510705478e-05 0.00010901654605 5.1780778449e-05 5.1007744332e-05
          0.00010770540393 5.0557620852e-05 5.0627128076e-05 7.5445095717e-05 2.7730280635e-05 4.9150516134e-05
          0.0001381229813 6.2094390159e-05 5.1086462918e-05 0.00010837912123 5.1161601732e-05 4.7307948989e-05
          0.0001076789631 5.2429368225e-05 4.9550180847e-05 0.00013962692174 6.2353159592e-05 5.02603325e-05
          0.00010179423407 7.5919124356e-05 5.1012091717e-05 0.00010946633847 5.0658760301e-05 4.8842495744e-05
          7.7153468737e-05 2.8288375688e-05 4.8374316975e-05 7.4766299804e-05 2.9023467505e-05 5.0479189667e-05
          0.00022032347624 6.081610627e-05 4.9458616559e-05 0.00021722521342 7.8584031144e-05 5.0360395107e-05
          0.00022116074979 6.0248061345e-05 5.0601913244e-05 0.0002186675847 7.8534751083e-05 5.1041261031e-05
          0.00021677542827 7.9590077803e-05 5.1624709158e-05 0.0002221482282 6.0738693719e-05 4.9790869525e-05
          0.00022091303254 6.1238592025e-05 5.1173417887e-05 0.00021839886904 7.6889125921e-05 4.9813799706e-05
          0.00021838008252 7.8523386037e-05 4.8737809266e-05 0.00022165235714 6.0266458604e-05 4.8749028792e-05
          0.00022022514895 5.9912992583e-05 4.9267291615e-05 0.00021738534269 7.7344586316e-05 5.0273141824e-05
          0.0002206985082 6.186466635e-05 4.9804049922e-05 0.00021945779736 7.8090874013e-05 4.9233509344e-05
          0.00022033473942 6.2072729634e-05 5.1252380217e-05 0.00021741677483 7.8425560787e-05 4.9198424676e-05
          0.00021777207439 8.0003563198e-05 4.9613849114e-05 0.00022208427254 5.9515201428e-05 5.1066243032e-05
          0.00021804796415 7.8783014033e-05 5.1516679378e-05 0.00022222464031 6.0036440118e-05 4.9306698202e-05
          0.00021851180645 7.9888799519e-05 5.0295402616e-05 0.00022016340517 6.0483333073e-05 5.0627022574e-05
          0.00022163143149 6.1165315856e-05 4.7286328481e-05 0.00021939974977 7.941385411e-05 5.098575275e-05
          0.00021963352629 6.1169324908e-05 5.1303617511e-05 0.00021768193983 7.8891418525e-05 4.7696408728e-05
          0.00021916994592 7.7658558439e-05 5.0100017688e-05 0.00022029575484 5.9598762164e-05 5.0079626817e-05
          0.00021854171064 7.7368124039e-05 5.0894148444e-05 0.00022186551359 6.2145169068e-05 4.9332975323e-05
          0.00021913928504 7.8738790762e-05 5.0022605137e-05 0.00022168402211 6.1276150518e-05 5.1753235311e-05
          0.00021982409817 6.1161415942e-05 4.8128942581e-05 0.00021805462893 7.8008779383e-05 4.9907634093e-05
          0.00021860215929 7.9987068602e-05 4.8762329243e-05 0.00022102735238 5.9167119616e-05 5.0660550187e-05
          0.00021764748089 7.9477649706e-05 5.0933620514e-05 0.00022092071595 6.0252608819e-05 4.7836107115e-05
          0.00021689399728 7.840305625e-05 5.1550887292e-05 0.00022139181965 5.9730344219e-05 4.9627200497e-05
          0.00021641433705 7.93317231e-05 5.0484562962e-05 0.00022211560281 6.0679900344e-05 5.0980379456e-05
          0.00022074468143 6.0965303419e-05 4.885479575e-05 0.00021782584372 7.8645462054e-05 5.2527375374e-05
          0.00022113595332 5.9468045947e-05 4.8532081564e-05 0.000218920919 7.9267621913e-05 4.8030069593e-05
          0.00021835102234 7.8804085206e-05 4.9940761528e-05 0.00021852391365 7.709973579e-05 4.8666839575e-05
          0.00022152537713 6.1422419094e-05 4.8981935834e-05 0.00022042547062 6.0093498178e-05 5.1651819376e-05
          0.00021968974033 6.1323982663e-05 5.0181086408e-05 0.00021988310618 5.9334965044e-05 5.0987135182e-05
          0.00022044974321 6.1114253185e-05 5.1802599046e-05 0.00021931546507 6.1025333707e-05 4.9250800657e-05
          0.00022122971131 6.1399288825e-05 5.0208422181e-05 0.00021736195777 7.7730677731e-05 5.131063881e-05
          0.00021944337641 7.8118013334e-05 4.8265461373e-05 0.00021978859149 7.8624456364e-05 5.0175440265e-05
          0.00022208166774 6.1837192334e-05 5.0367783842e-05 0.00021929589275 7.9236182501e-05 4.9120910262e-05
          0.00024638845935 2.6749878089e-05 5.1216993597e-05 0.00024602765916 2.5464365535e-05 5.0105663831e-05
          0.00024883740116 2.6858420824e-05 4.8241341574e-05 0.00024855448282 2.7943420719e-05 4.8885518481e-05
          0.00024802234839 2.6104928111e-05 5.0866350648e-05 0.00024903801386 2.6194084057e-05 5.1386632549e-05
          0.00024727420532 2.7030417186e-05 4.8918074754e-05 0.00024751166347 2.5689321774e-05 4.9754686188e-05
          0.00024651439162 2.6421555958e-05 4.9365808081e-05 0.0002484320139 2.5439818273e-05 4.9980782933e-05
          0.00024914272944 2.5124607419e-05 4.8356952902e-05 0.00024779795785 2.8291842682e-05 5.0307866331e-05
          0.00024855419178 2.607890201e-05 4.932515003e-05 0.00024698351626 2.7754029361e-05 4.9687081628e-05
          0.00024809426395 2.7217245588e-05 5.0474121963e-05 0.00024850302725 2.5229153835e-05 5.2221723308e-05
          0.00024696681066 2.5650970201e-05 5.1154038374e-05 0.000248074095 2.6178975531e-05 5.202092143e-05
          0.00024748555734 2.6001080187e-05 4.858975808e-05 0.0002472337801 2.6850639188e-05 5.0673337682e-05
          0.00024828425376 2.6963909477e-05 4.9096313887e-05 0.00024936997215 2.6431827791e-05 5.0245875173e-05
          0.00024895957904 2.8310088965e-05 5.0388836826e-05 0.00024744309485 2.8187299904e-05 4.8894176871e-05
          0.00024742240203 2.709637738e-05 4.7864523367e-05 0.00024830759503 2.6509380405e-05 5.0178088713e-05
          0.00024785520509 2.4823693821e-05 5.061464617e-05 0.00024945495534 2.5539546186e-05 4.9519698223e-05
          0.00024689288693 2.5955669116e-05 5.0287791964e-05 0.00024846929591 2.5945037123e-05 4.8388803407e-05
          0.00024758296786 2.6801182685e-05 4.9678645155e-05 0.00024797802325 2.5231025575e-05 5.1359311328e-05
        </DataArray>
      </Points>
      <Cells>
        <DataArray type="Int64" Name="connectivity" format="ascii" RangeMin="0" RangeMax="311">
          0 1 2 3 4 5
          6 7 8 9 10 11
          12 13 14 15 16 17
          18 19 20 21 22 23
          24 25 26 27 28 29
          30 31 32 33 34 35
          36 37 38 39 40 41
          42 43 44 45 46 47
          48 49 50 51 52 53
          54 55 56 57 58 59
          60 61 62 63 64 65
          66 67 68 69 70 71
          72 73 74 75 76 77
          78 79 80 81 82 83
          84 85 86 87 88 89
          90 91 92 93 94 95
          96 97 98 99 100 101
          102 103 104 105 106 107
          108 109 110 111 112 113
          114 115 116 117 118 119
          120 121 122 123 124 125
          126 127 128 129 130 131
          132 133 134 135 136 137
          138 139 140 141 142 143
          144 145 146 147 148 149
          150 151 152 153 154 155
          156 157 158 159 160 161
          162 163 164 165 166 167
          168 169 170 171 172 173
          174 175 176 177 178 179
          180 181 182 183 184 185
          186 187 188 189 190 191
          192 193 194 195 196 197
          198 199 200 201 202 203
          204 205 206 207 208 209
          210 211 212 213 214 215
          216 217 218 219 220 221
          222 223 224 225 226 227
          228 229 230 231 232 233
          234 235 236 237 238 239
          240 241 242 243 244 245
          246 247 248 249 250 251
          252 253 254 255 256 257
          258 259 260 261 262 263
          264 265 266 267 268 269
          270 271 272 273 274 275
          276 277 278 279 280 281
          282 283 284 285 286 287
          288 289 290 291 292 293
          294 295 296 297 298 299
          300 301 302 303 304 305
          306 307 308 309 310 311
        </DataArray>
        <DataArray type="Int64" Name="offsets" format="ascii" RangeMin="1" RangeMax="312">
          1 2 3 4 5 6
          7 8 9 10 11 12
          13 14 15 16 17 18
          19 20 21 22 23 24
          25 26 27 28 29 30
          31 32 33 34 35 36
          37 38 39 40 41 42
          43 44 45 46 47 48
          49 50 51 52 53 54
          55 56 57 58 59 60
          61 62 63 64 65 66
          67 68 69 70 71 72
          73 74 75 76 77 78
          79 80 81 82 83 84
          85 86 87 88 89 90
          91 92 93 94 95 96
          97 98 99 100 101 102
          103 104 105 106 107 108
          109 110 111 112 113 114
          115 116 117 118 119 120
          121 122 123 124 125 126
          127 128 129 130 131 132
          133 134 135 136 137 138
          139 140 141 142 143 144
          145 146 147 148 149 150
          151 152 153 154 155 156
          157 158 159 160 161 162
          163 164 165 166 167 168
          169 170 171 172 173 174
          175 176 177 178 179 180
          181 182 183 184 185 186
          187 188 189 190 191 192
          193 194 195 196 197 198
          199 200 201 202 203 204
          205 206 207 208 209 210
          211 212 213 214 215 216
          217 218 219 220 221 222
          223 224 225 226 227 228
          229 230 231 232 233 234
          235 236 237 238 239 240
          241 242 243 244 245 246