<?xml version="1.0"?>
<VTKFile type="UnstructuredGrid" version="0.1" byte_order="LittleEndian" header_type="UInt32" compressor="vtkZLibDataCompressor">
  <UnstructuredGrid>
    <Piece NumberOfPoints="228" NumberOfCells="228">
      <PointData>
        <DataArray type="Int32" Name="id" format="ascii" RangeMin="1" RangeMax="228">
          8 6 5 11 12 13
          21 22 23 32 33 34
          44 45 46 47 48 49
          57 58 67 68 78 79
          80 81 82 83 94 95
          96 97 98 99 113 114
          115 116 117 118 138 139
          140 141 142 143 144 145
          160 161 162 163 164 165
          166 167 168 189 190 191
          192 193 194 195 196 9
          4 3 7 14 15 16
          17 24 25 26 30 31
          35 36 37 41 50 51
          52 53 54 59 60 61
          62 63 69 70 71 72
          84 85 86 87 88 89
          100 101 102 103 104 105
          106 107 119 120 121 122
          123 124 125 126 127 128
          129 130 146 147 148 149
          150 151 169 170 171 172
          173 174 175 176 177 178
          179 197 198 199 200 201
          202 203 204 205 206 207
          208 209 210 211 212 213
          214 215 216 10 1 18
          19 27 28 38 39 42
          55 56 64 73 74 75
          76 77 90 108 109 110
          111 112 131 132 133 152
          153 154 155 156 157 180
          181 182 183 184 185 217
          218 219 220 221 222 223
          224 2 20 29 40 43
          65 66 91 92 93 134
          135 136 137 158 159 186
          187 188 225 226 227 228
        </DataArray>
        <DataArray type="Int32" Name="type" format="ascii" RangeMin="1" RangeMax="1">
          1 1 1 1 1 1
          1 1 1 1 1 1
          1 1 1 1 1 1
          1 1 1 1 1 1
          1 1 1 1 1 1
          1 1 1 1 1 1
          1 1 1 1 1 1
          1 1 1 1 1 1
          1 1 1 1 1 1
          1 1 1 1 1 1
          1 1 1 1 1 1
          1 1 1 1 1 1
          1 1 1 1 1 1
          1 1 1 1 1 1
          1 1 1 1 1 1
          1 1 1 1 1 1
          1 1 1 1 1 1
          1 1 1 1 1 1
          1 1 1 1 1 1
          1 1 1 1 1 1
          1 1 1 1 1 1
          1 1 1 1 1 1
          1 1 1 1 1 1
          1 1 1 1 1 1
          1 1 1 1 1 1
          1 1 1 1 1 1
          1 1 1 1 1 1
          1 1 1 1 1 1
          1 1 1 1 1 1
          1 1 1 1 1 1
          1 1 1 1 1 1
          1 1 1 1 1 1
          1 1 1 1 1 1
          1 1 1 1 1 1
          1 1 1 1 1 1
          1 1 1 1 1 1
          1 1 1 1 1 1
          1 1 1 1 1 1
        </DataArray>
        <DataArray type="Float64" Name="diameter" format="ascii" RangeMin="1.0246760109e-06" RangeMax="1.3547917714e-06">
          1.1936679718e-06 1.1398863128e-06 1.1725589021e-06 1.2987388029e-06 1.2286464138e-06 1.1266795417e-06
          1.1049924578e-06 1.212850331e-06 1.1778667963e-06 1.312004282e-06 1.1809318737e-06 1.304858974e-06
          1.3301403867e-06 1.2359603071e-06 1.070840243e-06 1.3323059415e-06 1.1798546765e-06 1.3168770455e-06
          1.2430673478e-06 1.2815707779e-06 1.2974685755e-06 1.2831327712e-06 1.1486990872e-06 1.1411623496e-06
          1.1762144414e-06 1.1638795323e-06 1.2382533414e-06 1.1448945346e-06 1.1729392564e-06 1.0729746279e-06
          1.1322260039e-06 1.1214156865e-06 1.2304987226e-06 1.3202940347e-06 1.3547917714e-06 1.3021925232e-06
          1.2961737877e-06 1.3452581763e-06 1.3085026745e-06 1.2793389336e-06 1.2281962309e-06 1.3187032392e-06
          1.2123925377e-06 1.2856112942e-06 1.2667549719e-06 1.2885860339e-06 1.1831185153e-06 1.2338156063e-06
          1.1542441718e-06 1.1504468217e-06 1.0873722917e-06 1.1802359202e-06 1.2760321168e-06 1.1410713882e-06
          1.1637603533e-06 1.1694856903e-06 1.0823304889e-06 1.1529238811e-06 1.0573314928e-06 1.1608892853e-06
          1.0623787501e-06 1.0875132221e-06 1.1044645117e-06 1.1280042134e-06 1.0772779884e-06 1.2557784372e-06
          1.2430462935e-06 1.1642151109e-06 1.1003343251e-06 1.1660873916e-06 1.3229729016e-06 1.0246760109e-06
          1.354360158e-06 1.1421746054e-06 1.1565918026e-06 1.3191589718e-06 1.3236614884e-06 1.1003969104e-06
          1.1945508673e-06 1.1993333439e-06 1.3047993729e-06 1.1654162887e-06 1.1167209346e-06 1.0908119341e-06
          1.0820820951e-06 1.3329695145e-06 1.166832325e-06 1.3437469797e-06 1.2174538588e-06 1.3286641647e-06
          1.3095639233e-06 1.0810859554e-06 1.3018246109e-06 1.2696733565e-06 1.3230632112e-06 1.1686594922e-06
          1.1849321891e-06 1.2841320608e-06 1.2687707418e-06 1.1630438e-06 1.1423539351e-06 1.1489430263e-06
          1.3493805429e-06 1.1312290434e-06 1.146320983e-06 1.1848473501e-06 1.1526252187e-06 1.236557868e-06
          1.0944482331e-06 1.1134971444e-06 1.3470409381e-06 1.0576074511e-06 1.2498845533e-06 1.3501484666e-06
          1.3403341555e-06 1.2748038302e-06 1.2713061724e-06 1.113867695e-06 1.1196831877e-06 1.3444874104e-06
          1.3016913066e-06 1.0864444408e-06 1.1549288812e-06 1.2272700466e-06 1.2494841054e-06 1.2669343458e-06
          1.15627343e-06 1.2051808406e-06 1.1704787866e-06 1.2258924457e-06 1.1365781664e-06 1.1295964712e-06
          1.1777027955e-06 1.144572398e-06 1.1854068766e-06 1.2604920346e-06 1.1419161574e-06 1.1558563648e-06
          1.1379118038e-06 1.1130346041e-06 1.0978027777e-06 1.144550675e-06 1.1240338847e-06 1.0846002747e-06
          1.1435658499e-06 1.1660970037e-06 1.146697529e-06 1.0975991608e-06 1.1124238243e-06 1.1004971261e-06
          1.1599579649e-06 1.0610910592e-06 1.1293875462e-06 1.1494710631e-06 1.1221223573e-06 1.1177222523e-06
          1.0771443389e-06 1.0382403472e-06 1.0816022031e-06 1.2486704992e-06 1.1161664655e-06 1.1030104065e-06
          1.3140477827e-06 1.0331085739e-06 1.1282533704e-06 1.2805193357e-06 1.3396622411e-06 1.1943068885e-06
          1.0657035383e-06 1.171874525e-06 1.2782863622e-06 1.2948349581e-06 1.2446526399e-06 1.175630251e-06
          1.1461289408e-06 1.1990554774e-06 1.1926132156e-06 1.0672407903e-06 1.1008826514e-06 1.1390809972e-06
          1.3384068615e-06 1.146044152e-06 1.2501284694e-06 1.318427283e-06 1.1445154793e-06 1.1967817081e-06
          1.2993412576e-06 1.2089645168e-06 1.2271584015e-06 1.2725318257e-06 1.2884879821e-06 1.1679227593e-06
          1.1835068523e-06 1.1966052338e-06 1.1621585243e-06 1.1636302951e-06 1.1656920975e-06 1.1128662971e-06
          1.1349162882e-06 1.161872227e-06 1.1176612137e-06 1.1296369141e-06 1.1448014974e-06 1.1411948131e-06
          1.0436456653e-06 1.0934163432e-06 1.2209466066e-06 1.1466658053e-06 1.34150943e-06 1.1727628542e-06
          1.0702781543e-06 1.3330929125e-06 1.2875264088e-06 1.2013529498e-06 1.3178820469e-06 1.2508431803e-06
          1.1397599863e-06 1.3522190308e-06 1.2718754917e-06 1.177676782e-06 1.2283229662e-06 1.1591501217e-06
          1.1651856093e-06 1.1946446502e-06 1.1432910242e-06 1.0846978643e-06 1.116423913e-06 1.0843185658e-06
        </DataArray>
      </PointData>
      <CellData>
      </CellData>
      <Points>
        <DataArray type="Float32" Name="Points" NumberOfComponents="3" format="ascii" RangeMin="8.4330887122e-05" RangeMax="0.00025558379264">
          5.2340943512e-05 4.7944187827e-05 5.0495142204e-05 2.8679552997e-05 6.3689702074e-05 5.1088241889e-05
          4.1847510147e-05 7.4222254625e-05 5.1836468629e-05 5.2995164879e-05 4.6119381295e-05 4.7970170272e-05
          2.9940212698e-05 6.4179497713e-05 4.9584574299e-05 4.3010637455e-05 7.5238524005e-05 5.0681672292e-05
          2.932067764e-05 6.3185398176e-05 5.1371396694e-05 5.3295338148e-05 4.4702905143e-05 4.9989135732e-05
          4.0935534344e-05 7.4424751801e-05 4.9213223974e-05 5.2424711612e-05 4.7038294724e-05 4.8447087465e-05
          4.0939688915e-05 7.5047770224e-05 4.9914706324e-05 2.983502236e-05 6.1780527176e-05 4.9447786296e-05
          2.9937440559e-05 6.3076840888e-05 4.9173802836e-05 5.3229472542e-05 4.6074099373e-05 4.9164809752e-05
          4.2730494897e-05 7.522181113e-05 4.8488735047e-05 2.9629080018e-05 6.3777297328e-05 5.1865579735e-05
          5.2898751164e-05 4.6147895773e-05 5.1653812989e-05 4.2229723476e-05 7.3767601862e-05 4.9453705287e-05
          5.4022868426e-05 4.702798833e-05 5.1036393415e-05 3.0856856029e-05 6.2393548433e-05 4.9525904615e-05
          4.2222472985e-05 7.3155206337e-05 5.0388047384e-05 4.1943607357e-05 7.487401308e-05 4.9374182709e-05
          5.1820323279e-05 4.7116969654e-05 5.1368093409e-05 2.9295795684e-05 6.4317617216e-05 4.8663121561e-05
          3.1377927371e-05 6.3456507633e-05 5.0076589105e-05 4.2081064748e-05 7.5568430475e-05 5.0334558182e-05
          2.9018989153e-05 6.1710066802e-05 5.0731887313e-05 5.4169333453e-05 4.5533182856e-05 5.1213002735e-05
          5.1975777751e-05 4.5589393267e-05 4.8288966354e-05 4.2771389417e-05 7.4087860412e-05 4.8811303714e-05
          5.4624208133e-05 4.6688604925e-05 4.959819853e-05 4.1711125959e-05 7.5811760325e-05 4.9495960411e-05
          3.0357763535e-05 6.2469385739e-05 5.1403178077e-05 5.2131286793e-05 4.5765493269e-05 5.0055434258e-05
          5.2349241741e-05 4.6691817261e-05 4.9511516409e-05 3.0664468795e-05 6.1917620769e-05 4.873611033e-05
          2.8809281503e-05 6.2857223384e-05 4.8862984841e-05 4.1331077227e-05 7.3094779509e-05 4.9910962844e-05
          3.0258859624e-05 6.2052306021e-05 5.042308112e-05 4.2058145482e-05 7.4590738222e-05 5.0537775678e-05
          5.2796942327e-05 4.7683442972e-05 4.9518414016e-05 4.1201696149e-05 7.3910705396e-05 5.0871673011e-05
          2.9801749406e-05 6.4036612457e-05 5.0766306231e-05 5.2851148212e-05 4.52431741e-05 5.0807448133e-05
          4.0813170926e-05 7.4955612945e-05 5.1089973567e-05 5.3465137171e-05 4.6947192459e-05 4.9975184083e-05
          4.3077259761e-05 7.3858398537e-05 5.0710357755e-05 2.9123631975e-05 6.2422674091e-05 4.9851245421e-05
          2.8982776712e-05 6.3591323851e-05 5.0201357226e-05 4.1553754272e-05 7.4180265074e-05 4.8233534471e-05
          5.325553866e-05 4.5699303882e-05 5.0013954024e-05 5.1724462537e-05 4.7118337534e-05 5.0183025451e-05
          2.8543994631e-05 6.4072301029e-05 4.9435529945e-05 3.0270250136e-05 6.3283907366e-05 5.0243615988e-05
          4.1100109229e-05 7.5870637374e-05 5.034244532e-05 4.1955718189e-05 7.6051786891e-05 4.8472829803e-05
          3.0014622098e-05 6.2635474023e-05 5.2396801038e-05 4.2908661271e-05 7.547387213e-05 4.9427650083e-05
          2.9406612157e-05 6.2597158831e-05 5.0775030104e-05 4.3004220061e-05 7.469629054e-05 4.9707636208e-05
          5.2896481066e-05 4.6756493248e-05 5.0715581892e-05 5.3785213822e-05 4.6280354582e-05 5.0592210755e-05
          5.2389132179e-05 4.522837844e-05 4.9313701311e-05 4.2260413466e-05 7.3457304097e-05 4.8054051149e-05
          5.4030326282e-05 4.5872522605e-05 5.0019716582e-05 7.4744224548e-05 2.9778288081e-05 5.0209822803e-05
          0.00010660297994 5.0714446843e-05 4.8795835028e-05 0.00013783744362 6.0893231421e-05 5.0797221775e-05
          0.00010234306683 7.5247495261e-05 5.0196587836e-05 7.7237302321e-05 2.9000371796e-05 4.9400394346e-05
          0.00010969761206 5.1252234698e-05 5.0548511354e-05 0.00013761983428 6.1673483287e-05 5.1123028243e-05
          9.9635995866e-05 7.5891635788e-05 5.1588605857e-05 0.00010681852291 5.2474952099e-05 5.0385177019e-05
          7.5041090895e-05 2.8245674912e-05 4.8561611038e-05 0.00013924756786 6.1929531512e-05 4.8227961088e-05
          0.00010160091915 7.6479802374e-05 4.9319132813e-05 0.00010127339192 7.5085583376e-05 5.1065911975e-05
          7.5586962339e-05 2.9119422834e-05 4.886024908e-05 0.00013938311895 6.1820632254e-05 5.1607737987e-05
          0.0001074890024 5.1665498177e-05 4.9086520448e-05 0.0001383744675 6.1810023908e-05 4.971238377e-05
          0.00010655964434 5.2484632761e-05 4.9246293202e-05 7.7063530625e-05 2.9494058253e-05 5.0339611334e-05
          0.0001080956572 5.2058814617e-05 5.1614722906e-05 7.6408170571e-05 2.7722773666e-05 5.1236918807e-05
          0.00010163884144 7.4360432336e-05 4.8841273383e-05 7.582877879e-05 2.9687880669e-05 5.0891470892e-05
          0.0001008183317 7.5881594967e-05 4.9903595936e-05 0.00013811151439 6.2212580815e-05 4.8883499403e-05
          0.0001012439825 7.6575415733e-05 5.1206108765e-05 0.00010028615361 7.6228076068e-05 4.9246646086e-05
          0.00013894191943 6.1050624936e-05 4.8885151045e-05 0.00010895691958 5.2182364016e-05 5.0782320614e-05
          0.00013831793331 6.1156912125e-05 5.2086161304e-05 0.0001088478748 5.1403429097e-05 4.8412941396e-05
          0.00010782502068 5.0396756706e-05 4.8715082812e-05 7.6337113569e-05 2.9551416446e-05 4.9411555665e-05
          0.00010743922758 5.0695383834e-05 5.0923059462e-05 0.00013862254855 6.2112630985e-05 4.7404828365e-05
          7.5293603004e-05 2.8333439332e-05 5.1048631576e-05 0.00013994511392 6.1907419877e-05 4.8961956054e-05
          0.00010100325744 7.5287054642e-05 4.9157046305e-05 7.4973359006e-05 2.7608763048e-05 5.0290240324e-05
          0.00010026484233 7.4849893281e-05 5.2145303925e-05 7.6320997323e-05 2.8827160349e-05 5.2022278396e-05
          0.00010867126548 5.0924827519e-05 5.1924278523e-05 7.5996329542e-05 2.7608537494e-05 4.9229620345e-05
          0.00010074240708 7.433880819e-05 5.0139889936e-05 0.00013788852084 6.3170518843e-05 4.9292921176e-05
          7.4687741289e-05 2.9586281016e-05 5.1454331697e-05 0.00010855065921 5.1679122407e-05 4.9667272833e-05
          0.00013845902868 6.2324608734e-05 5.1150858781e-05 9.9873803265e-05 7.6349424489e-05 5.0417715102e-05
          0.00010138146899 7.6234027802e-05 4.8185760534e-05 0.00010804775957 5.1247247029e-05 4.8134221288e-05
          0.0001074150714 5.2296996728e-05 4.9931324611e-05 7.5475254562e-05 2.9838849514e-05 4.9249600124e-05
          0.00010024366202 7.5097392255e-05 4.9757440138e-05 9.9344841146e-05 7.6079013525e-05 4.9193426094e-05
          0.00013771117665 6.0978385591e-05 4.8924131988e-05 0.00013897003373 6.1265505792e-05 5.0586684665e-05
          0.00013908346591 6.2391292886e-05 4.9174610467e-05 0.00013968054554 6.1941427703e-05 5.0453021686e-05
          0.00010157198267 7.5732525147e-05 5.0395763537e-05 0.00010914132145 5.085945304e-05 4.938188431e-05
          7.6209194958e-05 2.9934853956e-05 4.8429214075e-05 0.00010731657676 5.1353930758e-05 5.0154005294e-05
          0.00010706767353 5.0408962124e-05 4.9775771913e-05 7.6597818406e-05 2.844194205e-05 4.8667174269e-05
          7.4940959166e-05 2.831096208e-05 4.9403541198e-05 0.00013892436982 6.2597930082e-05 5.0177899539e-05
          0.00010756609845 5.2704126574e-05 4.884939699e-05 0.00010829676467 5.2709194279e-05 5.1459155657e-05
          0.00013778850553 6.2091188738e-05 4.8107656767e-05 7.5498646765e-05 2.8898912205e-05 5.0108432333e-05
          0.00013946958643 6.124417996e-05 4.9733087508e-05 9.9617303931e-05 7.4776042311e-05 5.1216004067e-05
          7.6197480666e-05 2.7711608709e-05 5.0253496738e-05 0.00013801347814 6.1009046476e-05 4.9761449191e-05
          0.00010240002302 7.5584765e-05 4.9150050472e-05 0.00013697669783 6.2212668126e-05 5.0419981562e-05
          0.00010719323473 5.2079867601e-05 5.1327606343e-05 7.608638407e-05 2.7798558222e-05 4.8195939598e-05
          0.00010058303451 7.5717267464e-05 5.1609884395e-05 7.6263233495e-05 2.8731963539e-05 5.0230311899e-05
          0.00010791868408 5.1500937843e-05 5.2456722187e-05 0.00010161688988 7.4450756074e-05 4.9961035984e-05
          0.00010048504191 7.6479787822e-05 4.8285641242e-05 0.00010808683146 5.0606038712e-05 4.9732243497e-05
          7.5034549809e-05 2.7393014534e-05 4.9066147767e-05 7.6455449744e-05 2.8818234568e-05 5.0993374316e-05
          0.00010864729848 5.1205381169e-05 5.0946684496e-05 0.00010127046698 7.4396935815e-05 5.1273644203e-05
          0.000137774623 6.2620223616e-05 5.0231647037e-05 0.00010820409079 5.1172788517e-05 5.0491998991e-05
          7.5680487498e-05 3.0340506783e-05 5.0281221775e-05 9.9939265056e-05 7.5376156019e-05 5.0748636568e-05
          0.00013851854601 6.1198057665e-05 5.1344984968e-05 0.00022001111938 6.0941390984e-05 4.9176902394e-05
          0.0002172839595 7.8622288129e-05 5.0373790145e-05 0.00022107166296 6.0259852035e-05 5.0569004088e-05
          0.00021852078498 7.8679142462e-05 5.0458973419e-05 0.00021688580455 7.9620629549e-05 5.1495968364e-05
          0.00022214544879 6.0677040892e-05 4.9887039495e-05 0.00022082771466 6.136646698e-05 5.053055429e-05
          0.000218480287 7.6995995187e-05 4.9236929044e-05 0.00021833789651 7.8596989624e-05 4.8732439609e-05
          0.00022141770751 6.0198191932e-05 4.873117723e-05 0.00022036205337 6.0036036302e-05 4.9562760978e-05
          0.00021752058819 7.7675933426e-05 5.0749884394e-05 0.000221079521 6.1417085817e-05 4.9582493375e-05
          0.00021938649297 7.8130273323e-05 4.902026194e-05 0.00022034696303 6.1941907916e-05 5.1483089919e-05
          0.00021766904683 7.8367898823e-05 4.9256632337e-05 0.00021781107353 7.9993173131e-05 4.9574591685e-05
          0.00022204393463 5.9487989347e-05 5.1097515097e-05 0.00021804442804 7.881635247e-05 5.1396826166e-05
          0.00022211269243 5.9973299358e-05 4.9517515436e-05 0.00021847891912 7.982920215e-05 5.0304617616e-05
          0.00022038054885 6.0333040892e-05 5.1182480092e-05 0.00022159039509 6.1016809923e-05 4.736268238e-05
          0.00021952051611 7.9058598203e-05 5.0585422287e-05 0.00021965389897 6.1188089603e-05 5.0661601563e-05
          0.0002176836424 7.8871118603e-05 4.7697307309e-05 0.00021913730598 7.7739248809e-05 4.9992711865e-05
          0.00022015726427 5.9506131947e-05 5.0379956519e-05 0.00021872330399 7.7398843132e-05 5.0767906941e-05
          0.00022191405878 6.1901831941e-05 4.9796937674e-05 0.00021899992134 7.9012897913e-05 4.9532922276e-05
          0.00022115376487 6.1131642724e-05 5.1637041906e-05 0.00021985117928 6.113951531e-05 4.8167494242e-05
          0.00021807331359 7.8153207141e-05 4.9997252063e-05 0.00021867782925 7.9784505942e-05 4.8862439144e-05
          0.00022106307733 5.9215919464e-05 5.0737999118e-05 0.00021768374427 7.9469580669e-05 5.0995055062e-05
          0.00022112081933 6.0324426158e-05 4.7951820306e-05 0.00021704858227 7.8402597865e-05 5.1481343689e-05
          0.00022140041983 5.9858652094e-05 4.9667432904e-05 0.00021646523965 7.9374032794e-05 5.0480473874e-05
          0.00022197880025 6.0725058574e-05 5.0978735089e-05 0.00022084597731 6.08830087e-05 4.9082696933e-05
          0.00021790676692 7.8613244114e-05 5.2488550864e-05 0.00022125769465 5.9553527535e-05 4.8678808525e-05
          0.00021874734375 7.9172423284e-05 4.8107041948e-05 0.00024649788975 2.6843497835e-05 5.1235212595e-05
          0.00024662050419 2.5809156796e-05 5.0188220484e-05 0.00024886420579 2.6684621844e-05 4.8431033065e-05
          0.00024798559025 2.8063126592e-05 4.8998426792e-05 0.00024794091587 2.6145899028e-05 5.0963226386e-05
          0.00024890745408 2.6191424695e-05 5.1244336646e-05 0.00024743253016 2.7030364436e-05 4.8465295549e-05
          0.00024801722611 2.6220863219e-05 5.0021895731e-05 0.00024678537739 2.6380956115e-05 4.9515158025e-05
          0.00024810287869 2.5104858651e-05 5.0283506425e-05 0.00024880905403 2.5614082915e-05 4.8335390602e-05
          0.00024784778361 2.8176882552e-05 5.016463183e-05 0.00024886263418 2.5846808057e-05 4.9466150813e-05
          0.00024752013269 2.7189444154e-05 4.958921636e-05 0.00024783032131 2.7312173188e-05 5.0327485951e-05
          0.00024810596369 2.5222667318e-05 5.1577102568e-05 0.00024720773217 2.5616604034e-05 5.103051808e-05
          0.0002481341653 2.6263367545e-05 5.1920571423e-05 0.00024758625659 2.5936031307e-05 4.8722584324e-05
          0.00024736579508 2.6719753805e-05 5.072150816e-05 0.00024812814081 2.6757639716e-05 4.9138459872e-05
          0.00024921406293 2.6386722311e-05 5.0191301852e-05 0.00024888606276 2.8268983442e-05 5.0383889175e-05
        </DataArray>
      </Points>
      <Cells>
        <DataArray type="Int64" Name="connectivity" format="ascii" RangeMin="0" RangeMax="227">
          0 1 2 3 4 5
          6 7 8 9 10 11
          12 13 14 15 16 17
          18 19 20 21 22 23
          24 25 26 27 28 29
          30 31 32 33 34 35
          36 37 38 39 40 41
          42 43 44 45 46 47
          48 49 50 51 52 53
          54 55 56 57 58 59
          60 61 62 63 64 65
          66 67 68 69 70 71
          72 73 74 75 76 77
          78 79 80 81 82 83
          84 85 86 87 88 89
          90 91 92 93 94 95
          96 97 98 99 100 101
          102 103 104 105 106 107
          108 109 110 111 112 113
          114 115 116 117 118 119
          120 121 122 123 124 125
          126 127 128 129 130 131
          132 133 134 135 136 137
          138 139 140 141 142 143
          144 145 146 147 148 149
          150 151 152 153 154 155
          156 157 158 159 160 161
          162 163 164 165 166 167
          168 169 170 171 172 173
          174 175 176 177 178 179
          180 181 182 183 184 185
          186 187 188 189 190 191
          192 193 194 195 196 197
          198 199 200 201 202 203
          204 205 206 207 208 209
          210 211 212 213 214 215
          216 217 218 219 220 221
          222 223 224 225 226 227
        </DataArray>
        <DataArray type="Int64" Name="offsets" format="ascii" RangeMin="1" RangeMax="228">
          1 2 3 4 5 6
          7 8 9 10 11 12
          13 14 15 16 17 18
          19 20 21 22 23 24
          25 26 27 28 29 30
          31 32 33 34 35 36
          37 38 39 40 41 42
          43 44 45 46 47 48
          49 50 51 52 53 54
          55 56 57 58 59 60
          61 62 63 64 65 66
          67 68 69 70 71 72
          73 74 75 76 77 78
          79 80 81 82 83 84
          85 86 87 88 89 90
          91 92 93 94 95 96
          97 98 99 100 101 102
          103 104 105 106 107 108
          109 110 111 112 113 114
          115 116 117 118 119 120
          121 122 123 124 125 126
          127 128 129 130 131 132
          133 134 135 136 137 138
          139 140 141 142 143 144
          145 146 147 148 149 150
          151 152 153 154 155 156
          157 158 159 160 161 162
          163 164 165 166 167 168
          169 170 171 172 173 174
          175 176 177 178 179 180
          181 182 183 184 185 186
          187 188 189 190 191 192
          193 194 195 196 197 198
          199 200 201 202 203 204
          205 206 207 208 209 210
          211 212 213 214 215 216
          217 218 219 220 221 222
          223 224 225 226 227 228
        </DataArray>
        <DataArray type="UInt8" Name="types" format="ascii" RangeMin="1" RangeMax="1">
          1 1 1 1 1 1
          1 1 1 1 1 1
          1 1 1 1 1 1
          1 1 1 1 1 1
          1 1 1 1 1 1
          1 1 1 1 1 1
          1 1 1 1 1 1
          1 1 1 1 1 1
          1 1 1 1 1 1
          1 1 1 1 1 1
          1 1 1 1 1 1
          1 1 1 1 1 1
          1 1 1 1 1 1
          1 1 1 1 1 1
          1 1 1 1 1 1
          1 1 1 1 1 1
          1 1 1 1 1 1
          1 1 1 1 1 1
          1 1 1 1 1 1
          1 1 1 1 1 1
          1 1 1 1 1 1
          1 1 1 1 1 1
          1 1 1 1 1 1
          1 1 1 1 1 1
          1 1 1 1 1 1
          1 1 1 1 1 1
          1 1 1 1 1 1
          1 1 1 1 1 1
          1 1 1 1 1 1
          1 1 1 1 1 1
          1 1 1 1 1 1
          1 1 1 1 1 1
          1 1 1 1 1 1
          1 1 1 1 1 1
          1 1 1 1 1 1
          1 1 1 1 1 1
          1 1 1 1 1 1
          1 1 1 1 1 1
        </DataArray>
      </Cells>
    </Piece>
  </UnstructuredGrid>
</VTKFile>
