<?xml version="1.0"?>
<VTKFile type="UnstructuredGrid" version="0.1" byte_order="LittleEndian" header_type="UInt32" compressor="vtkZLibDataCompressor">
  <UnstructuredGrid>
    <Piece NumberOfPoints="1000" NumberOfCells="1000">
      <PointData>
        <DataArray type="Int32" Name="id" format="ascii" RangeMin="1" RangeMax="1000">
          8 6 5 11 12 13
          21 22 23 32 33 34
          44 45 46 47 48 49
          57 58 67 68 78 79
          80 81 82 83 94 95
          96 97 98 99 113 114
          115 116 117 118 138 139
          140 141 142 143 144 145
          160 161 162 163 164 165
          166 167 168 189 190 191
          192 193 194 195 196 229
          230 231 232 233 234 235
          236 237 238 239 240 241
          242 243 274 275 276 277
          278 279 280 281 282 283
          284 285 286 287 313 314
          315 316 317 318 319 320
          321 322 323 324 371 372
          373 374 375 376 377 378
          379 380 381 382 383 384
          385 386 447 448 449 450
          451 452 453 454 455 456
          457 458 459 460 461 462
          463 464 465 466 467 510
          511 512 513 514 515 516
          517 518 519 520 521 522
          523 524 525 526 527 528
          529 530 531 580 581 582
          583 584 585 586 587 588
          589 590 591 592 593 594
          595 596 597 598 599 600
          601 602 603 604 605 606
          607 608 609 610 679 680
          681 682 683 684 685 686
          687 688 689 690 691 692
          693 694 695 696 697 698
          699 700 701 702 703 704
          705 791 792 793 794 795
          796 797 798 799 800 801
          802 803 804 805 806 807
          808 809 810 895 896 897
          898 899 900 901 902 903
          904 905 906 907 908 909
          910 911 912 913 914 915
          916 9 4 3 7 14
          15 16 17 24 25 26
          30 31 35 36 37 41
          50 51 52 53 54 59
          60 61 62 63 69 70
          71 72 84 85 86 87
          88 89 100 101 102 103
          104 105 106 107 119 120
          121 122 123 124 125 126
          127 128 129 130 146 147
          148 149 150 151 169 170
          171 172 173 174 175 176
          177 178 179 197 198 199
          200 201 202 203 204 205
          206 207 208 209 210 211
          212 213 214 215 216 244
          245 246 247 248 249 250
          251 252 253 254 255 256
          257 258 259 260 261 288
          289 290 291 292 293 294
          295 296 297 298 299 300
          301 325 326 327 328 329
          330 331 332 333 334 335
          336 337 338 339 340 341
          342 343 344 345 346 347
          387 388 389 390 391 392
          393 394 395 396 397 398
          399 400 401 402 403 404
          405 406 407 408 409 410
          411 412 413 414 415 416
          417 418 419 420 421 422
          423 468 469 470 471 472
          473 474 475 476 477 478
          479 480 481 482 483 484
          485 486 487 488 489 490
          491 492 493 494 495 496
          532 533 534 535 536 537
          538 539 540 541 542 543
          544 545 546 547 548 549
          550 551 552 553 554 555
          556 557 558 559 611 612
          613 614 615 616 617 618
          619 620 621 622 623 624
          625 626 627 628 629 630
          631 632 633 634 635 636
          637 638 639 640 641 642
          643 644 645 706 707 708
          709 710 711 712 713 714
          715 716 717 718 719 720
          721 722 723 724 725 726
          727 728 729 730 731 732
          733 734 735 736 737 738
          739 740 741 742 743 744
          745 746 747 748 749 750
          751 752 753 754 811 812
          813 814 815 816 817 818
          819 820 821 822 823 824
          825 826 827 828 829 830
          831 832 833 834 835 836
          837 838 839 840 841 842
          843 844 845 846 847 848
          849 850 851 852 853 854
          855 856 857 858 917 918
          919 920 921 922 923 924
          925 926 927 928 929 930
          931 932 933 934 935 936
          937 938 939 940 941 942
          943 944 945 946 947 948
          949 950 951 952 953 954
          955 956 957 958 959 960
          961 962 963 964 965 966
          967 968 969 970 10 1
          18 19 27 28 38 39
          42 55 56 64 73 74
          75 76 77 90 108 109
          110 111 112 131 132 133
          152 153 154 155 156 157
          180 181 182 183 184 185
          217 218 219 220 221 222
          223 224 262 263 264 265
          266 267 268 302 303 304
          305 306 307 308 348 349
          350 351 352 353 354 355
          356 357 358 359 360 361
          362 363 424 425 426 427
          428 429 430 431 432 433
          434 435 436 437 497 498
          499 500 501 502 503 560
          561 562 563 564 565 566
          567 568 569 570 571 572
          573 574 646 647 648 649
          650 651 652 653 654 655
          656 657 658 659 660 661
          662 663 664 665 666 755
          756 757 758 759 760 761
          762 763 764 765 766 767
          768 769 770 771 772 773
          774 859 860 861 862 863
          864 865 866 867 868 869
          870 871 872 873 874 875
          876 877 878 879 880 881
          971 972 973 974 975 976
          977 978 979 980 981 982
          983 984 985 986 987 988
          989 990 991 992 2 20
          29 40 43 65 66 91
          92 93 134 135 136 137
          158 159 186 187 188 225
          226 227 228 269 270 271
          272 273 309 310 311 312
          364 365 366 367 368 369
          370 438 439 440 441 442
          443 444 445 446 504 505
          506 507 508 509 575 576
          577 578 579 667 668 669
          670 671 672 673 674 675
          676 677 678 775 776 777
          778 779 780 781 782 783
          784 785 786 787 788 789
          790 882 883 884 885 886
          887 888 889 890 891 892
          893 894 993 994 995 996
          997 998 999 1000
        </DataArray>
        <DataArray type="Int32" Name="type" format="ascii" RangeMin="1" RangeMax="1">
          1 1 1 1 1 1
          1 1 1 1 1 1
          1 1 1 1 1 1
          1 1 1 1 1 1
          1 1 1 1 1 1
          1 1 1 1 1 1
          1 1 1 1 1 1
          1 1 1 1 1 1
          1 1 1 1 1 1
          1 1 1 1 1 1
          1 1 1 1 1 1
          1 1 1 1 1 1
          1 1 1 1 1 1
          1 1 1 1 1 1
          1 1 1 1 1 1
          1 1 1 1 1 1
          1 1 1 1 1 1
          1 1 1 1 1 1
          1 1 1 1 1 1
          1 1 1 1 1 1
          1 1 1 1 1 1
          1 1 1 1 1 1
          1 1 1 1 1 1
          1 1 1 1 1 1
          1 1 1 1 1 1
          1 1 1 1 1 1
          1 1 1 1 1 1
          1 1 1 1 1 1
          1 1 1 1 1 1
          1 1 1 1 1 1
          1 1 1 1 1 1
          1 1 1 1 1 1
          1 1 1 1 1 1
          1 1 1 1 1 1
          1 1 1 1 1 1
          1 1 1 1 1 1
          1 1 1 1 1 1
          1 1 1 1 1 1
          1 1 1 1 1 1
          1 1 1 1 1 1
          1 1 1 1 1 1
          1 1 1 1 1 1
          1 1 1 1 1 1
          1 1 1 1 1 1
          1 1 1 1 1 1
          1 1 1 1 1 1
          1 1 1 1 1 1
          1 1 1 1 1 1
          1 1 1 1 1 1
          1 1 1 1 1 1
          1 1 1 1 1 1
          1 1 1 1 1 1
          1 1 1 1 1 1
          1 1 1 1 1 1
          1 1 1 1 1 1
          1 1 1 1 1 1
          1 1 1 1 1 1
          1 1 1 1 1 1
          1 1 1 1 1 1
          1 1 1 1 1 1
          1 1 1 1 1 1
          1 1 1 1 1 1
          1 1 1 1 1 1
          1 1 1 1 1 1
          1 1 1 1 1 1
          1 1 1 1 1 1
          1 1 1 1 1 1
          1 1 1 1 1 1
          1 1 1 1 1 1
          1 1 1 1 1 1
          1 1 1 1 1 1
          1 1 1 1 1 1
          1 1 1 1 1 1
          1 1 1 1 1 1
          1 1 1 1 1 1
          1 1 1 1 1 1
          1 1 1 1 1 1
          1 1 1 1 1 1
          1 1 1 1 1 1
          1 1 1 1 1 1
          1 1 1 1 1 1
          1 1 1 1 1 1
          1 1 1 1 1 1
          1 1 1 1 1 1
          1 1 1 1 1 1
          1 1 1 1 1 1
          1 1 1 1 1 1
          1 1 1 1 1 1
          1 1 1 1 1 1
          1 1 1 1 1 1
          1 1 1 1 1 1
          1 1 1 1 1 1
          1 1 1 1 1 1
          1 1 1 1 1 1
          1 1 1 1 1 1
          1 1 1 1 1 1
          1 1 1 1 1 1
          1 1 1 1 1 1
          1 1 1 1 1 1
          1 1 1 1 1 1
          1 1 1 1 1 1
          1 1 1 1 1 1
          1 1 1 1 1 1
          1 1 1 1 1 1
          1 1 1 1 1 1
          1 1 1 1 1 1
          1 1 1 1 1 1
          1 1 1 1 1 1
          1 1 1 1 1 1
          1 1 1 1 1 1
          1 1 1 1 1 1
          1 1 1 1 1 1
          1 1 1 1 1 1
          1 1 1 1 1 1
          1 1 1 1 1 1
          1 1 1 1 1 1
          1 1 1 1 1 1
          1 1 1 1 1 1
          1 1 1 1 1 1
          1 1 1 1 1 1
          1 1 1 1 1 1
          1 1 1 1 1 1
          1 1 1 1 1 1
          1 1 1 1 1 1
          1 1 1 1 1 1
          1 1 1 1 1 1
          1 1 1 1 1 1
          1 1 1 1 1 1
          1 1 1 1 1 1
          1 1 1 1 1 1
          1 1 1 1 1 1
          1 1 1 1 1 1
          1 1 1 1 1 1
          1 1 1 1 1 1
          1 1 1 1 1 1
          1 1 1 1 1 1
          1 1 1 1 1 1
          1 1 1 1 1 1
          1 1 1 1 1 1
          1 1 1 1 1 1
          1 1 1 1 1 1
          1 1 1 1 1 1
          1 1 1 1 1 1
          1 1 1 1 1 1
          1 1 1 1 1 1
          1 1 1 1 1 1
          1 1 1 1 1 1
          1 1 1 1 1 1
          1 1 1 1 1 1
          1 1 1 1 1 1
          1 1 1 1 1 1
          1 1 1 1 1 1
          1 1 1 1 1 1
          1 1 1 1 1 1
          1 1 1 1 1 1
          1 1 1 1 1 1
          1 1 1 1 1 1
          1 1 1 1 1 1
          1 1 1 1 1 1
          1 1 1 1 1 1
          1 1 1 1 1 1
          1 1 1 1 1 1
          1 1 1 1 1 1
          1 1 1 1 1 1
          1 1 1 1 1 1
          1 1 1 1 1 1
          1 1 1 1
        </DataArray>
        <DataArray type="Float64" Name="diameter" format="ascii" RangeMin="1.0144693024e-06" RangeMax="1.3596477502e-06">
          1.3365496336e-06 1.2720083388e-06 1.2284505024e-06 1.0558409455e-06 1.2170633009e-06 1.1093648509e-06
          1.1656601192e-06 1.1955441919e-06 1.2556735197e-06 1.1103322704e-06 1.14034988e-06 1.3348474548e-06
          1.32053529e-06 1.3111374134e-06 1.3078493324e-06 1.1903681195e-06 1.0529432313e-06 1.3540235039e-06
          1.1663205677e-06 1.2209243878e-06 1.3199508371e-06 1.2139038234e-06 1.1250028943e-06 1.2987284058e-06
          1.1002672825e-06 1.1182554846e-06 1.342375442e-06 1.3493966856e-06 1.247788296e-06 1.309119052e-06
          1.2536064184e-06 1.2458976834e-06 1.338536857e-06 1.3464634683e-06 1.1522370212e-06 1.3497861301e-06
          1.2121214961e-06 1.3547013875e-06 1.3214297372e-06 1.1522678541e-06 1.2500345012e-06 1.2290009162e-06
          1.246580887e-06 1.3368448713e-06 1.2368558241e-06 1.2160671063e-06 1.1147471784e-06 1.1759289952e-06
          1.0520327571e-06 1.2720529635e-06 1.3011931576e-06 1.3166511279e-06 1.1730972495e-06 1.173836203e-06
          1.1967601614e-06 1.296224058e-06 1.0798283786e-06 1.3238644644e-06 1.2580320499e-06 1.1357531938e-06
          1.0537256263e-06 1.349595141e-06 1.3399905293e-06 1.3071858719e-06 1.2961915039e-06 1.3376873827e-06
          1.2629320059e-06 1.1766402767e-06 1.3497405032e-06 1.1409958646e-06 1.2990421315e-06 1.3196707591e-06
          1.2912412544e-06 1.3196021323e-06 1.3363535175e-06 1.2627882255e-06 1.1040405262e-06 1.2651351402e-06
          1.2759614088e-06 1.3583154574e-06 1.3458496053e-06 1.1535640554e-06 1.2952042616e-06 1.3183205083e-06
          1.2236642666e-06 1.1351956353e-06 1.115740443e-06 1.2859132607e-06 1.2632436879e-06 1.2377792609e-06
          1.2744138237e-06 1.2354991518e-06 1.1426293239e-06 1.1446495494e-06 1.2009803378e-06 1.1886034934e-06
          1.1345471809e-06 1.0345667388e-06 1.1808040879e-06 1.0620253337e-06 1.2285805625e-06 1.1278061931e-06
          1.3441726334e-06 1.1552687311e-06 1.2563633265e-06 1.3475997411e-06 1.1060210936e-06 1.1531715354e-06
          1.2479270332e-06 1.1410598485e-06 1.330007841e-06 1.3056613022e-06 1.329277186e-06 1.2337789081e-06
          1.163949658e-06 1.087401647e-06 1.1880858546e-06 1.1970461449e-06 1.349076754e-06 1.1296651477e-06
          1.2445290804e-06 1.2069629665e-06 1.1901338172e-06 1.0754764111e-06 1.357849249e-06 1.2481975381e-06
          1.3211822492e-06 1.2218162498e-06 1.1245671387e-06 1.2815594608e-06 1.3327285511e-06 1.0636715828e-06
          1.1676703305e-06 1.3588704875e-06 1.2597186676e-06 1.3522567776e-06 1.1581027563e-06 1.0647339902e-06
          1.2689159934e-06 1.2969564469e-06 1.2460065754e-06 1.3368504968e-06 1.2608670764e-06 1.0897170757e-06
          1.2633424684e-06 1.192622325e-06 1.3062221687e-06 1.2077723149e-06 1.1551869973e-06 1.1862174955e-06
          1.2136853392e-06 1.2070560136e-06 1.2852842353e-06 1.2360733059e-06 1.3149082399e-06 1.1858310069e-06
          1.25458352e-06 1.2113577159e-06 1.2902168978e-06 1.3095284999e-06 1.2117378362e-06 1.3071338871e-06
          1.3014737168e-06 1.2626247628e-06 1.0748399338e-06 1.2696154408e-06 1.040489688e-06 1.3446603257e-06
          1.2443834912e-06 1.3170228637e-06 1.2504866204e-06 1.1686905272e-06 1.2688762899e-06 1.289647453e-06
          1.290484707e-06 1.3059436496e-06 1.2542753237e-06 1.2891661627e-06 1.2083080663e-06 1.2487783709e-06
          1.2480583182e-06 1.2231532761e-06 1.185682268e-06 1.1528353672e-06 1.1638784466e-06 1.2323659201e-06
          1.2161246445e-06 1.3455464021e-06 1.1907888459e-06 1.2782741284e-06 1.2425177757e-06 1.2457131593e-06
          1.1594293781e-06 1.1655495557e-06 1.3040890292e-06 1.2926618359e-06 1.1726750775e-06 1.1472987057e-06
          1.2183362829e-06 1.2746413612e-06 1.1753817777e-06 1.2513478055e-06 1.2486161351e-06 1.1102446123e-06
          1.2266972729e-06 1.1894324615e-06 1.1684239816e-06 1.2375083052e-06 1.1742330273e-06 1.3055968253e-06
          1.1303562662e-06 1.2057484633e-06 1.2701959891e-06 1.2745361916e-06 1.2533788989e-06 1.2107740473e-06
          1.2511985135e-06 1.2137053508e-06 1.293061673e-06 1.2157865085e-06 1.1578013743e-06 1.1532411722e-06
          1.2056713159e-06 1.1074225449e-06 1.089476389e-06 1.2584763312e-06 1.1109387085e-06 1.1840061362e-06
          1.1721046735e-06 1.1127354645e-06 1.2121692104e-06 1.1823869963e-06 1.1594188774e-06 1.1363959487e-06
          1.1012571064e-06 1.2087324496e-06 1.2206332849e-06 1.0689476906e-06 1.1169467711e-06 1.189198257e-06
          1.1572426281e-06 1.1673922183e-06 1.0677005622e-06 1.1756618031e-06 1.0904305476e-06 1.0463054307e-06
          1.0538523157e-06 1.130616566e-06 1.0784213102e-06 1.1260511532e-06 1.0774398138e-06 1.0391025314e-06
          1.1813091328e-06 1.0235435987e-06 1.0767030493e-06 1.1120965324e-06 1.0284542718e-06 1.1367177021e-06
          1.1504069094e-06 1.1007217038e-06 1.120865593e-06 1.1614567543e-06 1.028434627e-06 1.1776680228e-06
          1.1348743528e-06 1.0262473971e-06 1.2391348253e-06 1.3368935966e-06 1.3163411332e-06 1.2182221898e-06
          1.1905689397e-06 1.276522341e-06 1.1433158006e-06 1.3522148573e-06 1.0711193435e-06 1.2462627161e-06
          1.2734153078e-06 1.1374202198e-06 1.2447516589e-06 1.1655033706e-06 1.2151770604e-06 1.119544575e-06
          1.0889528738e-06 1.261248852e-06 1.1653214157e-06 1.1653598849e-06 1.2549599952e-06 1.117636603e-06
          1.231735725e-06 1.1167752582e-06 1.1248778602e-06 1.148591234e-06 1.3436293565e-06 1.3141922746e-06
          1.1427726634e-06 1.2998394689e-06 1.1957794713e-06 1.1290950905e-06 1.1612648992e-06 1.1438631457e-06
          1.105462702e-06 1.1080771213e-06 1.3233066097e-06 1.2087438969e-06 1.232737743e-06 1.321489702e-06
          1.2448920192e-06 1.2776000473e-06 1.0923148937e-06 1.1444807091e-06 1.2641173969e-06 1.1626118312e-06
          1.2572572687e-06 1.1881410994e-06 1.1248034743e-06 1.1421979491e-06 1.3537234295e-06 1.1396273893e-06
          1.0851366979e-06 1.2364808974e-06 1.2270064531e-06 1.1640927873e-06 1.2554712472e-06 1.326521296e-06
          1.1543495704e-06 1.3531066486e-06 1.1784066103e-06 1.3117708787e-06 1.1236544226e-06 1.2379338464e-06
          1.1056541329e-06 1.1676972023e-06 1.2294474735e-06 1.3474320808e-06 1.1295011438e-06 1.338678482e-06
          1.1599951824e-06 1.1873275007e-06 1.1381153884e-06 1.2325762165e-06 1.3559375939e-06 1.0606638671e-06
          1.2102366918e-06 1.1044524637e-06 1.1313106404e-06 1.2816505295e-06 1.2569604699e-06 1.0967121166e-06
          1.2985722927e-06 1.1149805002e-06 1.3569140074e-06 1.3247392352e-06 1.1633469488e-06 1.2017710583e-06
          1.3453950538e-06 1.2167856479e-06 1.1456984637e-06 1.1045522191e-06 1.3480533073e-06 1.3271345963e-06
          1.2780047507e-06 1.1097722e-06 1.2291285666e-06 1.2337367664e-06 1.1132361265e-06 1.3377183633e-06
          1.2799773746e-06 1.2451507228e-06 1.2544316511e-06 1.3115011663e-06 1.3587622411e-06 1.1487935867e-06
          1.2136306888e-06 1.1707805751e-06 1.0518837539e-06 1.3514103493e-06 1.2453942065e-06 1.1613727448e-06
          1.2153452593e-06 1.2092661931e-06 1.1359655348e-06 1.3206417442e-06 1.1101390092e-06 1.187302723e-06
          1.2865053422e-06 1.0270189702e-06 1.3409316617e-06 1.3337332115e-06 1.3412111645e-06 1.1083806e-06
          1.2468759449e-06 1.1565241574e-06 1.1779650203e-06 1.3318173746e-06 1.2362721562e-06 1.2408754018e-06
          1.0997008196e-06 1.2565448825e-06 1.1560864343e-06 1.0659135934e-06 1.264671392e-06 1.2051622528e-06
          1.355158643e-06 1.2929656057e-06 1.0955349514e-06 1.2115467205e-06 1.3525018395e-06 1.0425536563e-06
          1.2820185977e-06 1.2827669033e-06 1.2891758324e-06 1.1146654042e-06 1.1822777033e-06 1.1837098125e-06
          1.1711742931e-06 1.1898847283e-06 1.1164495529e-06 1.3248418314e-06 1.2689928937e-06 1.0477168266e-06
          1.1623293151e-06 1.1205278434e-06 1.1436281438e-06 1.3158537255e-06 1.0847659922e-06 1.1972066454e-06
          1.335523696e-06 1.186002262e-06 1.1656478954e-06 1.1365336701e-06 1.2280817433e-06 1.0590051555e-06
          1.2090699853e-06 1.0294692893e-06 1.3034904451e-06 1.1094841483e-06 1.1201309521e-06 1.0962147608e-06
          1.2263032535e-06 1.2457899108e-06 1.1857406054e-06 1.1876109121e-06 1.2051390709e-06 1.201055998e-06
          1.1647141805e-06 1.1817687683e-06 1.166185581e-06 1.1684961771e-06 1.142728005e-06 1.1135290671e-06
          1.0939646168e-06 1.3575469549e-06 1.101575779e-06 1.0761918713e-06 1.3575424091e-06 1.0686168962e-06
          1.2077120164e-06 1.1324858732e-06 1.2611983091e-06 1.0388456498e-06 1.1058913912e-06 1.0579286521e-06
          1.295385681e-06 1.3292129289e-06 1.2437864547e-06 1.1710547322e-06 1.2867589924e-06 1.2259449753e-06
          1.1175290594e-06 1.3256062505e-06 1.3272785863e-06 1.1373941245e-06 1.0248138143e-06 1.1187278733e-06
          1.3555194319e-06 1.0754238765e-06 1.3507448155e-06 1.1712549545e-06 1.1390319855e-06 1.0417607783e-06
          1.1394420681e-06 1.2580209784e-06 1.1836907497e-06 1.3296386312e-06 1.1650782464e-06 1.1136519234e-06
          1.2905939498e-06 1.2919041815e-06 1.316594506e-06 1.2797101084e-06 1.2021098225e-06 1.1879113571e-06
          1.3082796917e-06 1.119162894e-06 1.2788943656e-06 1.2880356983e-06 1.0590623483e-06 1.0948703852e-06
          1.0743671813e-06 1.2613467825e-06 1.3264575422e-06 1.3513155319e-06 1.1875431271e-06 1.1764045835e-06
          1.2959322632e-06 1.3581572899e-06 1.3416733092e-06 1.0876014107e-06 1.1952443248e-06 1.2703469859e-06
          1.2107128326e-06 1.1623972241e-06 1.2521357443e-06 1.2979103082e-06 1.2784267891e-06 1.0144693024e-06
          1.2614087091e-06 1.2149266772e-06 1.3180818973e-06 1.201004019e-06 1.2377858243e-06 1.2660473172e-06
          1.2501352933e-06 1.3202440244e-06 1.355215876e-06 1.251043052e-06 1.2794169222e-06 1.3058810643e-06
          1.229794745e-06 1.2671668356e-06 1.2848203162e-06 1.2558236279e-06 1.1919369546e-06 1.1945965966e-06
          1.3409775527e-06 1.3302943585e-06 1.2400351899e-06 1.1961009238e-06 1.218316146e-06 1.3434379621e-06
          1.2337048702e-06 1.3278719015e-06 1.2229494417e-06 1.2266327694e-06 1.2469699102e-06 1.2119518976e-06
          1.2817048924e-06 1.1135865389e-06 1.1530444837e-06 1.2358144963e-06 1.1954180974e-06 1.2666951124e-06
          1.2310483228e-06 1.2300881083e-06 1.1410391373e-06 1.2852535049e-06 1.259122886e-06 1.152500244e-06
          1.1930167906e-06 1.2271686265e-06 1.2299979146e-06 1.2445862369e-06 1.2692850082e-06 1.1440686562e-06
          1.2192274762e-06 1.2690321376e-06 1.1717258693e-06 1.1975750445e-06 1.2711912282e-06 1.2220385391e-06
          1.2060035596e-06 1.2162429761e-06 1.277143695e-06 1.214542075e-06 1.1725384583e-06 1.2414933651e-06
          1.2432160785e-06 1.190548118e-06 1.1357629139e-06 1.1719570369e-06 1.1908422933e-06 1.1650624289e-06
          1.2554513698e-06 1.2733545265e-06 1.1907715358e-06 1.1486277891e-06 1.269356405e-06 1.2027520837e-06
          1.2144170721e-06 1.1478070045e-06 1.2215538154e-06 1.1226992271e-06 1.2277833502e-06 1.2146558385e-06
          1.0736718225e-06 1.1581156123e-06 1.2455416441e-06 1.1400716266e-06 1.1518586536e-06 1.1690832231e-06
          1.1259188288e-06 1.1309950263e-06 1.2386564759e-06 1.1365537193e-06 1.2245888607e-06 1.1639661294e-06
          1.0734561134e-06 1.1577490314e-06 1.2120990325e-06 1.1289941944e-06 1.2060989529e-06 1.20154452e-06
          1.0930589846e-06 1.170614239e-06 1.1942060815e-06 1.187606824e-06 1.215698478e-06 1.1977926982e-06
          1.194353906e-06 1.0902376818e-06 1.1883926405e-06 1.1802494756e-06 1.1622496935e-06 1.1097435804e-06
          1.1885414628e-06 1.1591843355e-06 1.1889569205e-06 1.0754100653e-06 1.1309599065e-06 1.0803064346e-06
          1.1804649549e-06 1.1519233045e-06 1.0953964833e-06 1.1970944814e-06 1.1005395278e-06 1.1541031845e-06
          1.2344787604e-06 1.1112390592e-06 1.1834379897e-06 1.0901045614e-06 1.1329316673e-06 1.0703129071e-06
          1.0879837182e-06 1.0421508914e-06 1.0849088224e-06 1.0266015096e-06 1.0960122779e-06 1.0533249826e-06
          1.1015998167e-06 1.1263000466e-06 1.0460289142e-06 1.044685118e-06 1.1002239031e-06 1.1490871527e-06
          1.0926921278e-06 1.1065346401e-06 1.0731419266e-06 1.1605043633e-06 1.0313673869e-06 1.0602513678e-06
          1.143862744e-06 1.0849058938e-06 1.0982687894e-06 1.1488269542e-06 1.1516584435e-06 1.0786834151e-06
          1.0489287911e-06 1.1285250396e-06 1.1359057233e-06 1.0524421391e-06 1.0772184961e-06 1.0867882423e-06
          1.1360198318e-06 1.1255495314e-06 1.1860427466e-06 1.0728471357e-06 1.1700303844e-06 1.0622107325e-06
          1.0714539513e-06 1.0961841773e-06 1.1658862004e-06 1.0452737054e-06 1.1155921085e-06 1.1487831789e-06
          1.0510463629e-06 1.0855997115e-06 1.1316832832e-06 1.0844019202e-06 1.1026852443e-06 1.1524826205e-06
          1.1318951388e-06 1.0536100021e-06 1.0773045845e-06 1.1449418138e-06 1.2543055041e-06 1.1163700876e-06
          1.1067057241e-06 1.2956940594e-06 1.1654973289e-06 1.0696319861e-06 1.2961626267e-06 1.2601814692e-06
          1.2481854392e-06 1.126990318e-06 1.2983554813e-06 1.331397595e-06 1.2792867636e-06 1.2452256325e-06
          1.216637478e-06 1.0858099945e-06 1.2930995952e-06 1.2672492323e-06 1.2072943479e-06 1.2028264404e-06
          1.1877157313e-06 1.2128500834e-06 1.1874395922e-06 1.2628734349e-06 1.3541646607e-06 1.1232894371e-06
          1.2126549347e-06 1.3596477502e-06 1.1723977137e-06 1.2140955283e-06 1.3333025736e-06 1.1796892914e-06
          1.2160424873e-06 1.2210281257e-06 1.2760534801e-06 1.2305342125e-06 1.1566868845e-06 1.1472431379e-06
          1.1224914355e-06 1.2386754578e-06 1.1816395981e-06 1.1529550914e-06 1.0847865367e-06 1.2738118873e-06
          1.1841456206e-06 1.3058719374e-06 1.3516753071e-06 1.2606255055e-06 1.3004165727e-06 1.238742017e-06
          1.1964801002e-06 1.2718377916e-06 1.1488519165e-06 1.1268323999e-06 1.2526739292e-06 1.2003409577e-06
          1.3131535283e-06 1.2871137726e-06 1.1137129649e-06 1.2025616584e-06 1.0716808984e-06 1.2661465878e-06
          1.1992658664e-06 1.2322511591e-06 1.2895089934e-06 1.2873540202e-06 1.1292706279e-06 1.2488863591e-06
          1.1931079832e-06 1.3086532314e-06 1.0882277799e-06 1.3065719141e-06 1.2726861542e-06 1.1922889809e-06
          1.0412404945e-06 1.3309252932e-06 1.3309062816e-06 1.0991138583e-06 1.1525667051e-06 1.1360350055e-06
          1.1575059595e-06 1.2693187386e-06 1.1553563223e-06 1.0612483325e-06 1.1901286569e-06 1.068880404e-06
          1.1252719873e-06 1.128325836e-06 1.2035636433e-06 1.1771009696e-06 1.3067584706e-06 1.3254636112e-06
          1.2288918614e-06 1.1227076558e-06 1.2801306371e-06 1.0947149668e-06 1.1684275932e-06 1.281262074e-06
          1.2486795403e-06 1.2485237834e-06 1.3432277929e-06 1.1391999715e-06 1.1083501265e-06 1.2970200385e-06
          1.3480425854e-06 1.208097848e-06 1.2912243288e-06 1.0778257855e-06 1.2751615214e-06 1.1632233696e-06
          1.1984379038e-06 1.3092219186e-06 1.2841131538e-06 1.341809984e-06 1.269926122e-06 1.3225320783e-06
          1.2985252187e-06 1.2759722893e-06 1.277002732e-06 1.109158378e-06 1.3287103313e-06 1.3082918413e-06
          1.3135188928e-06 1.2957619301e-06 1.1150984962e-06 1.3252539023e-06 1.3566699638e-06 1.2395388123e-06
          1.2198868811e-06 1.2983614715e-06 1.2808824805e-06 1.2431142235e-06 1.3000361277e-06 1.1437997036e-06
          1.2051986237e-06 1.269475612e-06 1.2621543349e-06 1.0959636934e-06 1.1666161154e-06 1.2725452146e-06
          1.2622876663e-06 1.1805934986e-06 1.1717329947e-06 1.150478314e-06 1.1319091452e-06 1.0837830302e-06
          1.1139912746e-06 1.2302057251e-06 1.1741940836e-06 1.1506769853e-06 1.1901895737e-06 1.2053496435e-06
          1.1305840907e-06 1.1598283235e-06 1.2123235174e-06 1.156638338e-06 1.0858620223e-06 1.1612673766e-06
          1.0676524579e-06 1.0764779437e-06 1.1234127629e-06 1.2184325699e-06 1.1646170017e-06 1.2011688173e-06
          1.1669709124e-06 1.197756058e-06 1.2227836499e-06 1.0772310108e-06 1.1748549934e-06 1.1702711099e-06
          1.0933617126e-06 1.1770501074e-06 1.2062674339e-06 1.1680647851e-06 1.2027915005e-06 1.1975081099e-06
          1.0836033489e-06 1.0637643518e-06 1.1352095585e-06 1.0910048056e-06 1.0860145382e-06 1.079935201e-06
          1.0493659814e-06 1.0584845954e-06 1.1219042775e-06 1.0627739266e-06 1.1594157121e-06 1.0648668523e-06
          1.098714599e-06 1.1413967002e-06 1.0854350895e-06 1.0608077558e-06 1.0546547283e-06 1.1377925593e-06
          1.1195112116e-06 1.0206003733e-06 1.0554408132e-06 1.143936019e-06 1.3270587783e-06 1.0453054882e-06
          1.3078399498e-06 1.2576413707e-06 1.1860157734e-06 1.1267914472e-06 1.309160621e-06 1.3104550202e-06
          1.2032320532e-06 1.2857858167e-06 1.3164301035e-06 1.3191607886e-06 1.061720831e-06 1.262695936e-06
          1.1425127869e-06 1.297887799e-06 1.1871100185e-06 1.2758775746e-06 1.1852780215e-06 1.1500656673e-06
          1.1886254205e-06 1.1444671129e-06 1.2208476118e-06 1.2635990006e-06 1.1358387125e-06 1.2275132115e-06
          1.160960829e-06 1.1079301314e-06 1.182857387e-06 1.0400466741e-06 1.3375727522e-06 1.2918217393e-06
          1.2084789559e-06 1.1689269805e-06 1.2923230844e-06 1.2282638315e-06 1.2223989931e-06 1.293300959e-06
          1.1615630563e-06 1.2266576185e-06 1.1739598852e-06 1.242263452e-06 1.264478106e-06 1.1540176246e-06
          1.1015538008e-06 1.230884878e-06 1.2619524554e-06 1.1292584903e-06 1.3445321958e-06 1.1516708112e-06
          1.1843935939e-06 1.1119522766e-06 1.0845601671e-06 1.1559215543e-06 1.1957948711e-06 1.3157363024e-06
          1.2596493276e-06 1.1305251262e-06 1.3047729662e-06 1.2422919272e-06 1.2327334413e-06 1.2649421435e-06
          1.2235105661e-06 1.2738865146e-06 1.2945452134e-06 1.1756852799e-06 1.293783431e-06 1.2898131681e-06
          1.2183197625e-06 1.3049284409e-06 1.2231485958e-06 1.2116258947e-06 1.183287098e-06 1.2761729244e-06
          1.1682556059e-06 1.1807767948e-06 1.2317768755e-06 1.273774851e-06 1.2534905152e-06 1.2156440155e-06
          1.2194395252e-06 1.1392493143e-06 1.235922147e-06 1.1125100984e-06 1.2011670744e-06 1.2120352755e-06
          1.2717276117e-06 1.1908386924e-06 1.1121488921e-06 1.1021679014e-06 1.1393662705e-06 1.0980024892e-06
          1.207617758e-06 1.1353580752e-06 1.2001270227e-06 1.1649211459e-06 1.1193186661e-06 1.1075047773e-06
          1.1408626822e-06 1.2050270594e-06 1.1202346363e-06 1.161993346e-06 1.0637230118e-06 1.1495104948e-06
          1.0381796733e-06 1.1040922287e-06 1.0877653086e-06 1.0404938937e-06
        </DataArray>
      </PointData>
      <CellData>
      </CellData>
      <Points>
        <DataArray type="Float32" Name="Points" NumberOfComponents="3" format="ascii" RangeMin="8.3157008851e-05" RangeMax="0.00025676304458">
          5.2292842156e-05 4.881562927e-05 5.1274018915e-05 2.830788253e-05 6.4057305281e-05 5.1891693147e-05
          4.2604457121e-05 7.4628187576e-05 5.2389172197e-05 5.2240262448e-05 4.5965214667e-05 4.7942085075e-05
          3.0142688047e-05 6.528988888e-05 4.8677418818e-05 4.3080726755e-05 7.5479401858e-05 5.068361861e-05
          2.8299147743e-05 6.2882245402e-05 5.2879378927e-05 5.3640400438e-05 4.4505424739e-05 4.9297705118e-05
          3.9714064769e-05 7.4631723692e-05 4.9216683692e-05 5.122847142e-05 4.7945664846e-05 4.87981888e-05
          4.0417871787e-05 7.5784817454e-05 5.0151749747e-05 3.0594768759e-05 6.0456593928e-05 4.854418512e-05
          3.0818016967e-05 6.3246363425e-05 4.8118195991e-05 5.3271127399e-05 4.5186541684e-05 4.8325731768e-05
          4.3457715947e-05 7.5900461525e-05 4.7872417781e-05 2.9301842005e-05 6.3806575781e-05 5.1879895182e-05
          5.2055413107e-05 4.6569035476e-05 5.2183953812e-05 4.2541065341e-05 7.3703718954e-05 4.8924721341e-05
          5.4009313317e-05 4.7420297051e-05 5.1664108469e-05 3.1138002669e-05 6.2316998083e-05 4.9058071454e-05
          4.2742776714e-05 7.2692768299e-05 5.0825692597e-05 4.1884642997e-05 7.5596486568e-05 4.941644147e-05
          5.2032097301e-05 4.7475572501e-05 5.1766550314e-05 2.8893944545e-05 6.4415711677e-05 4.728886779e-05