<?xml version="1.0"?>
<VTKFile type="UnstructuredGrid" version="0.1" byte_order="LittleEndian" header_type="UInt32" compressor="vtkZLibDataCompressor">
  <UnstructuredGrid>
    <Piece NumberOfPoints="446" NumberOfCells="446">
      <PointData>
        <DataArray type="Int32" Name="id" format="ascii" RangeMin="1" RangeMax="446">
          8 6 5 11 12 13
          21 22 23 32 33 34
          44 45 46 47 48 49
          57 58 67 68 78 79
          80 81 82 83 94 95
          96 97 98 99 113 114
          115 116 117 118 138 139
          140 141 142 143 144 145
          160 161 162 163 164 165
          166 167 168 189 190 191
          192 193 194 195 196 229
          230 231 232 233 234 235
          236 237 238 239 240 241
          242 243 274 275 276 277
          278 279 280 281 282 283
          284 285 286 287 313 314
          315 316 317 318 319 320
          321 322 323 324 371 372
          373 374 375 376 377 378
          379 380 381 382 383 384
          385 386 9 4 3 7
          14 15 16 17 24 25
          26 30 31 35 36 37
          41 50 51 52 53 54
          59 60 61 62 63 69
          70 71 72 84 85 86
          87 88 89 100 101 102
          103 104 105 106 107 119
          120 121 122 123 124 125
          126 127 128 129 130 146
          147 148 149 150 151 169
          170 171 172 173 174 175
          176 177 178 179 197 198
          199 200 201 202 203 204
          205 206 207 208 209 210
          211 212 213 214 215 216
          244 245 246 247 248 249
          250 251 252 253 254 255
          256 257 258 259 260 261
          288 289 290 291 292 293
          294 295 296 297 298 299
          300 301 325 326 327 328
          329 330 331 332 333 334
          335 336 337 338 339 340
          341 342 343 344 345 346
          347 387 388 389 390 391
          392 393 394 395 396 397
          398 399 400 401 402 403
          404 405 406 407 408 409
          410 411 412 413 414 415
          416 417 418 419 420 421
          422 423 10 1 18 19
          27 28 38 39 42 55
          56 64 73 74 75 76
          77 90 108 109 110 111
          112 131 132 133 152 153
          154 155 156 157 180 181
          182 183 184 185 217 218
          219 220 221 222 223 224
          262 263 264 265 266 267
          268 302 303 304 305 306
          307 308 348 349 350 351
          352 353 354 355 356 357
          358 359 360 361 362 363
          424 425 426 427 428 429
          430 431 432 433 434 435
          436 437 2 20 29 40
          43 65 66 91 92 93
          134 135 136 137 158 159
          186 187 188 225 226 227
          228 269 270 271 272 273
          309 310 311 312 364 365
          366 367 368 369 370 438
          439 440 441 442 443 444
          445 446
        </DataArray>
        <DataArray type="Int32" Name="type" format="ascii" RangeMin="1" RangeMax="1">
          1 1 1 1 1 1
          1 1 1 1 1 1
          1 1 1 1 1 1
          1 1 1 1 1 1
          1 1 1 1 1 1
          1 1 1 1 1 1
          1 1 1 1 1 1
          1 1 1 1 1 1
          1 1 1 1 1 1
          1 1 1 1 1 1
          1 1 1 1 1 1
          1 1 1 1 1 1
          1 1 1 1 1 1
          1 1 1 1 1 1
          1 1 1 1 1 1
          1 1 1 1 1 1
          1 1 1 1 1 1
          1 1 1 1 1 1
          1 1 1 1 1 1
          1 1 1 1 1 1
          1 1 1 1 1 1
          1 1 1 1 1 1
          1 1 1 1 1 1
          1 1 1 1 1 1
          1 1 1 1 1 1
          1 1 1 1 1 1
          1 1 1 1 1 1
          1 1 1 1 1 1
          1 1 1 1 1 1
          1 1 1 1 1 1
          1 1 1 1 1 1
          1 1 1 1 1 1
          1 1 1 1 1 1
          1 1 1 1 1 1
          1 1 1 1 1 1
          1 1 1 1 1 1
          1 1 1 1 1 1
          1 1 1 1 1 1
          1 1 1 1 1 1
          1 1 1 1 1 1
          1 1 1 1 1 1
          1 1 1 1 1 1
          1 1 1 1 1 1
          1 1 1 1 1 1
          1 1 1 1 1 1
          1 1 1 1 1 1
          1 1 1 1 1 1
          1 1 1 1 1 1
          1 1 1 1 1 1
          1 1 1 1 1 1
          1 1 1 1 1 1
          1 1 1 1 1 1
          1 1 1 1 1 1
          1 1 1 1 1 1
          1 1 1 1 1 1
          1 1 1 1 1 1
          1 1 1 1 1 1
          1 1 1 1 1 1
          1 1 1 1 1 1
          1 1 1 1 1 1
          1 1 1 1 1 1
          1 1 1 1 1 1
          1 1 1 1 1 1
          1 1 1 1 1 1
          1 1 1 1 1 1
          1 1 1 1 1 1
          1 1 1 1 1 1
          1 1 1 1 1 1
          1 1 1 1 1 1
          1 1 1 1 1 1
          1 1 1 1 1 1
          1 1 1 1 1 1
          1 1 1 1 1 1
          1 1 1 1 1 1
          1 1
        </DataArray>
        <DataArray type="Float64" Name="diameter" format="ascii" RangeMin="1.0144539807e-06" RangeMax="1.3592854767e-06">
          1.1383893481e-06 1.1713729333e-06 1.1743425086e-06 1.3259493204e-06 1.1916634242e-06 1.0971133231e-06
          1.358924451e-06 1.1317777466e-06 1.1741520887e-06 1.2707551368e-06 1.1522734082e-06 1.336088798e-06
          1.2826281895e-06 1.242899687e-06 1.3091424158e-06 1.2634474324e-06 1.1856953225e-06 1.2817110084e-06
          1.19650463e-06 1.2953865754e-06 1.2533681494e-06 1.2292556537e-06 1.1619776696e-06 1.1391303404e-06
          1.1103466086e-06 1.185431022e-06 1.2714054519e-06 1.0609621994e-06 1.1332636106e-06 1.3117517815e-06
          1.1751203668e-06 1.1217670115e-06 1.2131900841e-06 1.359237928e-06 1.3522706262e-06 1.272527477e-06
          1.1916461237e-06 1.3157074261e-06 1.3168942054e-06 1.2102123705e-06 1.194923781e-06 1.2544952566e-06
          1.177631892e-06 1.2763337714e-06 1.2737473796e-06 1.2152188764e-06 1.0940272027e-06 1.2070066321e-06
          1.1132701336e-06 1.1061840449e-06 1.3380714011e-06 1.2045305366e-06 1.3502872894e-06 1.1353003905e-06
          1.1046218112e-06 1.1153362992e-06 1.0421698786e-06 1.1652295532e-06 1.3003107924e-06 1.1705278966e-06
          1.3073154738e-06 1.3382448238e-06 1.3591043178e-06 1.0348110022e-06 1.3256498058e-06 1.2662603533e-06
          1.3145543886e-06 1.2044439238e-06 1.3136904602e-06 1.0784658974e-06 1.2738721382e-06 1.2645244203e-06
          1.2334052095e-06 1.2928229388e-06 1.2695997635e-06 1.3310542656e-06 1.2948105503e-06 1.2349247276e-06
          1.3037095259e-06 1.2990901973e-06 1.2435523814e-06 1.1691531201e-06 1.231188186e-06 1.2030808316e-06
          1.2604740788e-06 1.1386082413e-06 1.1887313845e-06 1.2710551838e-06 1.2041797293e-06 1.225577451e-06
          1.2342540344e-06 1.1810983107e-06 1.2016270536e-06 1.172890709e-06 1.2275048295e-06 1.1141579558e-06
          1.2330555769e-06 1.1098764608e-06 1.1394389023e-06 1.1293952142e-06 1.1275183631e-06 1.1835187716e-06
          1.2128475101e-06 1.197350841e-06 1.1564689992e-06 1.2178932406e-06 1.0469475269e-06 1.0893581672e-06
          1.1424967503e-06 1.0670566141e-06 1.1701281104e-06 1.0265752848e-06 1.0522992075e-06 1.1397261812e-06
          1.1262586001e-06 1.0914266126e-06 1.1528101516e-06 1.1301759269e-06 1.0679731918e-06 1.0786102652e-06
          1.1483680226e-06 1.1242480294e-06 1.3193026007e-06 1.2720691053e-06 1.0549599067e-06 1.0144539807e-06
          1.1554391267e-06 1.1582920886e-06 1.2600138124e-06 1.3061237353e-06 1.1959439435e-06 1.1126041636e-06
          1.3131374452e-06 1.2610278414e-06 1.1417354026e-06 1.1611667195e-06 1.2020889003e-06 1.3306360324e-06
          1.1325721305e-06 1.0905286186e-06 1.1266569595e-06 1.3550274881e-06 1.3441710161e-06 1.1080175984e-06
          1.3539413321e-06 1.1858638532e-06 1.320576969e-06 1.2628669424e-06 1.3581728799e-06 1.2251404111e-06
          1.2629739303e-06 1.2696936954e-06 1.1773383282e-06 1.1292509668e-06 1.3037766843e-06 1.2837921097e-06
          1.2174265744e-06 1.0938136636e-06 1.0984618103e-06 1.2605256621e-06 1.1548679862e-06 1.1443532497e-06
          1.1669997441e-06 1.1121263633e-06 1.2128454879e-06 1.3592854767e-06 1.1312013373e-06 1.1251900095e-06
          1.3220131869e-06 1.168540676e-06 1.1289649951e-06 1.3242885202e-06 1.3212247631e-06 1.3202751382e-06
          1.1659058116e-06 1.1196100743e-06 1.0901029822e-06 1.2053971041e-06 1.3359686256e-06 1.1374044939e-06
          1.152850752e-06 1.2055734652e-06 1.2173234635e-06 1.2112669913e-06 1.2197248962e-06 1.0938323027e-06
          1.1835173359e-06 1.0695197323e-06 1.1160660972e-06 1.1489513319e-06 1.1900593643e-06 1.1642553162e-06
          1.2354423263e-06 1.0493559682e-06 1.1765200235e-06 1.0816045732e-06 1.1384649033e-06 1.044969465e-06
          1.1002452947e-06 1.165269581e-06 1.0328828948e-06 1.0773076255e-06 1.2130309461e-06 1.2242510185e-06
          1.0629299745e-06 1.0995840114e-06 1.0550906345e-06 1.226768845e-06 1.3308142816e-06 1.1321901966e-06
          1.1823573398e-06 1.0616685157e-06 1.1062715056e-06 1.3417051859e-06 1.3116133676e-06 1.3300142689e-06
          1.2255325616e-06 1.1364090002e-06 1.2902730514e-06 1.1363713438e-06 1.2577941346e-06 1.329199074e-06
          1.3020183189e-06 1.272040807e-06 1.3460902396e-06 1.3129604104e-06 1.1343097478e-06 1.2517551621e-06
          1.1491266564e-06 1.2531162649e-06 1.3431041116e-06 1.3384555122e-06 1.2745677932e-06 1.3294244003e-06
          1.1525316736e-06 1.193293525e-06 1.2140450373e-06 1.2761988462e-06 1.234179857e-06 1.2663334003e-06
          1.2672181079e-06 1.2231745879e-06 1.2165983579e-06 1.2567156702e-06 1.2567514613e-06 1.2942463033e-06
          1.2550279986e-06 1.2567311934e-06 1.2073465203e-06 1.1660862027e-06 1.1727297793e-06 1.2001602453e-06
          1.1371867019e-06 1.1422561276e-06 1.1895321714e-06 1.1410135907e-06 1.220285822e-06 1.1156132023e-06
          1.1557036853e-06 1.2210803093e-06 1.1882110706e-06 1.0869558575e-06 1.1720253366e-06 1.2228141882e-06
          1.2037794781e-06 1.1027613602e-06 1.1928565755e-06 1.1327523625e-06 1.1033838043e-06 1.0767163195e-06
          1.094262724e-06 1.1468068708e-06 1.040937512e-06 1.0812918542e-06 1.0210051451e-06 1.1404704612e-06
          1.0417293902e-06 1.1628393312e-06 1.1816348946e-06 1.1153436121e-06 1.0383570741e-06 1.1001339933e-06
          1.0281001386e-06 1.0278812291e-06 1.087402532e-06 1.1594196372e-06 1.1168055601e-06 1.1730526128e-06
          1.0885401869e-06 1.1728047684e-06 1.1950000928e-06 1.0286010508e-06 1.1169794508e-06 1.133402823e-06
          1.0705238777e-06 1.1374096836e-06 1.1731830465e-06 1.1003657212e-06 1.1187119402e-06 1.125386101e-06
          1.1085558356e-06 1.0791526998e-06 1.1267578594e-06 1.1115642102e-06 1.0986987456e-06 1.040280203e-06
          1.0323958588e-06 1.0587377246e-06 1.2336979137e-06 1.1201371162e-06 1.064484683e-06 1.2812895852e-06
          1.2669162618e-06 1.0723752116e-06 1.2370068536e-06 1.2957175421e-06 1.1915433788e-06 1.3217109078e-06
          1.2025950901e-06 1.3209843835e-06 1.2894236354e-06 1.1973478275e-06 1.127612386e-06 1.0823073414e-06
          1.2288730218e-06 1.2090016137e-06 1.3087731015e-06 1.1236406722e-06 1.0926353571e-06 1.1474222749e-06
          1.1201654572e-06 1.2429995448e-06 1.3035403324e-06 1.2085978242e-06 1.1507584932e-06 1.2210975027e-06
          1.1161713923e-06 1.1573511182e-06 1.299923268e-06 1.287283351e-06 1.1752545034e-06 1.1468122347e-06
          1.2113065717e-06 1.1857845437e-06 1.133895251e-06 1.104834317e-06 1.0694324115e-06 1.1919355303e-06
          1.1422784959e-06 1.0725659539e-06 1.1076699144e-06 1.1614035247e-06 1.1070441881e-06 1.2798380522e-06
          1.276697614e-06 1.312038231e-06 1.25940669e-06 1.2282201513e-06 1.3393282373e-06 1.1103192908e-06
          1.2488217697e-06 1.2470197758e-06 1.2831487567e-06 1.1565270363e-06 1.2252382805e-06 1.1893860043e-06
          1.2546750285e-06 1.1704923362e-06 1.1318240589e-06 1.1307439579e-06 1.1854441749e-06 1.1562330691e-06
          1.1718421733e-06 1.1813354164e-06 1.0773132865e-06 1.1786271867e-06 1.2316017883e-06 1.1671988664e-06
          1.157020048e-06 1.1265311852e-06 1.1336558148e-06 1.1312864896e-06 1.2322816302e-06 1.1429573985e-06
          1.0504146935e-06 1.1062447739e-06 1.1463878255e-06 1.1469362257e-06 1.0569702539e-06 1.1243080132e-06
          1.0656600669e-06 1.0965919332e-06 1.067438885e-06 1.11924942e-06 1.1264886634e-06 1.1162499892e-06
          1.1699689918e-06 1.0737129228e-06 1.0157159633e-06 1.2405466943e-06 1.1432396895e-06 1.3208820124e-06
          1.1423958371e-06 1.3381558102e-06 1.2267186943e-06 1.3425408179e-06 1.1908100549e-06 1.239065867e-06
          1.2273810381e-06 1.1626596212e-06 1.0611301696e-06 1.1992342234e-06 1.1553377989e-06 1.2725648421e-06
          1.1357470399e-06 1.1631451666e-06 1.1658498197e-06 1.0910664521e-06 1.356184599e-06 1.0876167896e-06
          1.1413869566e-06 1.0851947613e-06 1.1228411985e-06 1.2019071712e-06 1.0976790424e-06 1.3034690721e-06
          1.1757075979e-06 1.2548733544e-06 1.3143578801e-06 1.1729049674e-06 1.1796520035e-06 1.1883766606e-06
          1.1327590535e-06 1.1784875712e-06 1.1596144863e-06 1.1658140903e-06 1.1995734058e-06 1.1423118519e-06
          1.1325068397e-06 1.1247891812e-06 1.1703586664e-06 1.1274431815e-06 1.0407928692e-06 1.0813055678e-06
          1.1369843595e-06 1.0721257868e-06
        </DataArray>
      </PointData>
      <CellData>
      </CellData>
      <Points>
        <DataArray type="Float32" Name="Points" NumberOfComponents="3" format="ascii" RangeMin="8.38363409e-05" RangeMax="0.00025631082132">
          5.2644256357e-05 4.8504483857e-05 5.0667880714e-05 2.8637989089e-05 6.3969571784e-05 5.1813396567e-05
          4.1682447772e-05 7.4660951213e-05 5.2126775699e-05 5.2632614825e-05 4.5782471716e-05 4.7554978664e-05
          3.0055101888e-05 6.4786421717e-05 4.9163412768e-05 4.2877760279e-05 7.499862113e-05 5.0177954108e-05
          2.9133696444e-05 6.2901912315e-05 5.1637671277e-05 5.354462337e-05 4.4625860028e-05 4.9699086958e-05
          4.0341608837e-05 7.4483657954e-05 4.9641275837e-05 5.1695853472e-05 4.703626837e-05 4.8347024858e-05
          4.0247872676e-05 7.5441159424e-05 5.016452269e-05 2.9955215723e-05 6.1210244894e-05 4.8831578169e-05
          3.0185670767e-05 6.314561324e-05 4.843762872e-05 5.323041114e-05 4.572511898e-05 4.8604113545e-05
          4.3081727199e-05 7.5444128015e-05 4.8035661166e-05 2.9545972211e-05 6.3787294494e-05 5.2324299759e-05
          5.2854109526e-05 4.6546021622e-05 5.2288520237e-05 4.212404383e-05 7.4106479587e-05 4.9016478442e-05
          5.3789291997e-05 4.6973324061e-05 5.1678605814e-05 3.1275543733e-05 6.2568746216e-05 4.8705358495e-05
          4.2532010411e-05 7.3026196333e-05 5.1031023759e-05 4.2256542656e-05 7.503607776e-05 4.9588470574e-05
          5.2206698456e-05 4.7553443437e-05 5.166219853e-05 2.8860480597e-05 6.4379622927e-05 4.8285313824e-05
          3.1005140045e-05 6.3897598011e-05 4.9574875447e-05 4.1506595153e-05 7.5540549005e-05 5.0348375225e-05
          2.8911874324e-05 6.1464765167e-05 5.1246155635e-05 5.436644642e-05 4.5513854275e-05 5.0919567002e-05
          5.2080329624e-05 4.5181361202e-05 4.7796369472e-05 4.3173185986e-05 7.4363750173e-05 4.8415135097e-05
          5.4823129176e-05 4.7242840083e-05 4.9866011977e-05 4.1197832616e-05 7.6402786362e-05 4.9209131248e-05
          3.051987369e-05 6.2257400714e-05 5.1736275054e-05 5.192037861e-05 4.5752407459e-05 4.9391390348e-05
          5.2039635193e-05 4.6623405069e-05 5.0105085393e-05 3.1007730286e-05 6.149904948e-05 4.9266574933e-05
          2.9205792089e-05 6.2291961513e-05 4.866152085e-05 4.1089471779e-05 7.3385810538e-05 4.9410456995e-05
          2.9808395993e-05 6.177094474e-05 5.0775281125e-05 4.1902858356e-05 7.4413677794e-05 5.0311424275e-05
          5.2905787015e-05 4.7960060328e-05 4.9060330639e-05 4.1418377805e-05 7.3538831202e-05 5.0749637012e-05
          2.9998427635e-05 6.4791442128e-05 5.0276266848e-05 5.2562434576e-05 4.4565196731e-05 5.03296651e-05
          4.1089202568e-05 7.4968163972e-05 5.0762195315e-05 5.4081021517e-05 4.7580288083e-05 4.9543923524e-05
          4.3431784434e-05 7.4055576988e-05 5.1139599236e-05 2.8950682463e-05 6.2438579334e-05 4.9789116019e-05
          2.8862403269e-05 6.3521125412e-05 4.9670568842e-05 4.1399634938e-05 7.4725801824e-05 4.7776557039e-05
          5.3293177189e-05 4.5581040467e-05 5.0355949497e-05 5.095187953e-05 4.7171786719e-05 5.0542486861e-05
          2.8297252356e-05 6.4332947659e-05 4.9786322052e-05 2.9939668821e-05 6.3116844103e-05 5.0572376495e-05
          4.1267026972e-05 7.6061049185e-05 5.0908369303e-05 4.1610379412e-05 7.6438474935e-05 4.8194022384e-05
          3.0426996091e-05 6.3093335484e-05 5.2527619118e-05 4.2610845412e-05 7.5995587395e-05 4.9878042773e-05
          2.9388924304e-05 6.2805971538e-05 5.0752267271e-05 4.3538515456e-05 7.4734845839e-05 5.0237998948e-05
          5.2852523368e-05 4.6992754505e-05 5.0936188927e-05 5.3907344409e-05 4.6231503802e-05 5.0772447139e-05
          5.260803664e-05 4.4859567424e-05 4.925133544e-05 4.2543411837e-05 7.307852502e-05 4.8248854e-05
          5.4265434301e-05 4.540575901e-05 4.9871567171e-05 5.3765717894e-05 4.6456207201e-05 4.7926336265e-05
          5.2925406635e-05 4.7289955546e-05 4.7984864068e-05 2.9923106922e-05 6.209465937e-05 4.9655114708e-05
          2.9651468139e-05 6.3121195126e-05 4.9321632105e-05 2.945711276e-05 6.4732819737e-05 5.0955823099e-05
          4.221087147e-05 7.3586052167e-05 4.9955455324e-05 4.1826686356e-05 7.2595183155e-05 4.9477199354e-05
          5.2194154705e-05 4.5631979447e-05 5.0591039326e-05 5.2554158174e-05 4.6710556489e-05 4.8942612921e-05
          3.0518876883e-05 6.2028142565e-05 4.8123663873e-05 2.8534157536e-05 6.3108629547e-05 4.8155401601e-05
          4.1699564463e-05 7.262769941e-05 5.0717793783e-05 3.0777257052e-05 6.1596962041e-05 5.0374215789e-05
          4.0662231186e-05 7.4187555583e-05 5.122440416e-05 5.3353905969e-05 4.6730747272e-05 4.9750618928e-05
          2.9986329537e-05 6.3935345679e-05 4.9955542636e-05 5.310375127e-05 4.597102452e-05 4.9567373935e-05
          5.4034324421e-05 4.7203200666e-05 5.0572554755e-05 3.123253191e-05 6.251387822e-05 4.9839622079e-05
          4.1725965275e-05 7.4955314631e-05 4.8754696763e-05 2.9051780075e-05 6.1394173827e-05 5.0022703363e-05
          3.0747429264e-05 6.2662657001e-05 5.0890237617e-05 4.2437543016e-05 7.469861157e-05 5.1223498303e-05
          5.2648290875e-05 4.7516950872e-05 5.0055361498e-05 2.9672710298e-05 6.3857783971e-05 5.1149403589e-05
          5.2912106185e-05 4.5107815822e-05 5.1585240726e-05 4.062989683e-05 7.5213552918e-05 5.1774954045e-05
          2.8308018955e-05 6.2302337028e-05 5.0616192311e-05 2.8294165531e-05 6.3896499341e-05 4.8801859521e-05
          5.1843766414e-05 4.7766268835e-05 5.06901888e-05 4.1995797801e-05 7.3773655458e-05 5.1580755098e-05
          5.3669682529e-05 4.4514366891e-05 5.0833165005e-05 4.0744103899e-05 7.4216513894e-05 4.8695117584e-05
          4.1103339754e-05 7.4808456702e-05 4.9570684496e-05 5.2899787988e-05 4.595201608e-05 5.1393206377e-05
          5.1637747674e-05 4.6777768148e-05 5.1179817092e-05 3.1723593565e-05 6.3363855588e-05 5.0463717344e-05
          5.1315659221e-05 4.5845474233e-05 4.85805067e-05 4.3135467422e-05 7.3511066148e-05 5.0207745517e-05
          5.1580424042e-05 4.758324576e-05 4.9608526751e-05 4.2279370973e-05 7.5758929597e-05 4.8368783609e-05
          2.7937185223e-05 6.385272718e-05 5.0943872338e-05 4.3512143748e-05 7.5300980825e-05 5.1199393056e-05
          3.0040791899e-05 6.4442829171e-05 4.8416801292e-05 4.252292274e-05 7.5728705269e-05 5.0679289416e-05
          5.4149135394e-05 4.5613091061e-05 5.1967937907e-05 5.4580134019e-05 4.6303455747e-05 4.9584097724e-05
          4.1530729504e-05 7.5527561421e-05 4.9639449571e-05 2.8855552955e-05 6.3639781729e-05 5.0759004807e-05
          4.1438775952e-05 7.3563176556e-05 4.8196397984e-05 3.0729162972e-05 6.323998241e-05 4.9883663451e-05
          4.0149941924e-05 7.61004776e-05 5.0783499319e-05 2.9601293136e-05 6.2348030042e-05 5.2268696891e-05
          4.3105868826e-05 7.5892043242e-05 4.899036503e-05 4.305506809e-05 7.4429641245e-05 4.9315956858e-05
          4.1994255298e-05 7.3907540354e-05 4.767792052e-05 2.9909777368e-05 6.4830142946e-05 5.1987000916e-05
          7.4626659625e-05 3.0482724469e-05 5.0142603868e-05 0.00010634808132 5.1279854233e-05 4.8368823627e-05
          0.00013790334924 6.0928770836e-05 5.0788516091e-05 0.00010230844782 7.5077819929e-05 5.0622842537e-05
          7.6904652815e-05 2.9213091693e-05 4.9104844948e-05 0.00010988071153 5.1309205446e-05 5.0957845815e-05
          0.00013717984257 6.15759418e-05 5.1250633987e-05 9.9689277704e-05 7.6341122622e-05 5.1982733567e-05
          0.00010635391664 5.3140302043e-05 5.0050770369e-05 7.4672680057e-05 2.902774213e-05 4.8696347221e-05
          0.00013920030324 6.2361410528e-05 4.8393972975e-05 0.00010132098396 7.6921991422e-05 4.8707323003e-05
          0.00010143878899 7.5208583439e-05 5.1536146202e-05 7.5393058069e-05 2.9119866667e-05 4.8103735026e-05
          0.00013918059994 6.1715909396e-05 5.1543484005e-05 0.00010703002772 5.1725961384e-05 4.9315229262e-05
          0.0001384774223 6.1680184444e-05 5.0227732572e-05 0.0001061272269 5.2510964451e-05 4.8542653531e-05
          7.682753494e-05 2.9963044653e-05 5.0858638133e-05 0.00010809486412 5.1805312978e-05 5.1491166232e-05
          7.6233947766e-05 2.7954481993e-05 5.1706596423e-05 0.00010184013081 7.494786405e-05 4.8250982218e-05
          7.5782460044e-05 3.0327004424e-05 5.1534912927e-05 0.00010083949746 7.5818650657e-05 4.9439746363e-05
          0.00013848298113 6.2692757638e-05 4.9107529776e-05 0.00010124459368 7.6808857557e-05 5.0771286624e-05
          0.00010034976003 7.6901131251e-05 4.9339902034e-05 0.00013949847198 6.0618593125e-05 4.8595451517e-05
          0.00010898709297 5.2880928706e-05 5.0676240789e-05 0.00013854235294 6.1377046222e-05 5.2562940255e-05
          0.0001088437275 5.1969931519e-05 4.8062200221e-05 0.00010723902233 5.0480546633e-05 4.8222231271e-05
          7.6288146374e-05 2.9795644878e-05 4.9823560403e-05 0.0001068191923 5.029670865e-05 5.1319850172e-05
          0.00013829171075 6.1765575083e-05 4.6757591917e-05 7.4852803664e-05 2.837048487e-05 5.156262705e-05
          0.00013977021445 6.1387712776e-05 4.8913829232e-05 0.00010027554526 7.5313168054e-05 4.8759447964e-05
          7.4859162851e-05 2.7432057323e-05 5.0838702009e-05 0.00010005291551 7.5097748777e-05 5.1902981795e-05
          7.6809672464e-05 2.8878941521e-05 5.2119001339e-05 0.00010879544425 5.1320221246e-05 5.1961571444e-05
          7.6603828347e-05 2.7375779609e-05 4.9159862101e-05 0.00010051645222 7.411979459e-05 5.0141210522e-05
          0.00013734392996 6.2909544795e-05 4.9119327741e-05 7.4966294051e-05 2.984841376e-05 5.2337079978e-05
          0.00010854059656 5.1802257076e-05 4.9446065532e-05 0.00013898010366 6.279504305e-05 5.1494349464e-05
          9.9130455055e-05 7.6042713772e-05 5.0500111684e-05 0.0001010705455 7.5871139416e-05 4.8136793339e-05
          0.00010794404807 5.116129978e-05 4.7966223065e-05 0.00010772029782 5.2924933698e-05 5.0574155466e-05
          7.5170719356e-05 3.0137241993e-05 4.9536247388e-05 0.00010053364531 7.479852502e-05 4.9368682085e-05
          9.8830692878e-05 7.6199889008e-05 4.8648271331e-05 0.00013776152628 6.0909038439e-05 4.8208512453e-05
          0.00013933841547 6.1170001572e-05 5.0583275879e-05 0.00013982618111 6.2575469201e-05 4.9319110985e-05
          0.00014029425802 6.15607496e-05 5.0806233048e-05 0.00010167699656 7.5709904195e-05 5.0073307648e-05
          0.00010903059592 5.0717808335e-05 4.9859212595e-05 7.6135984273e-05 2.9861843359e-05 4.7657558753e-05
          0.000106962274 5.0687267503e-05 5.0492315495e-05 0.00010742180166 4.9707468861e-05 5.0046040997e-05
          7.6401869592e-05 2.8518827094e-05 4.8836431233e-05 7.486717368e-05 2.8143573218e-05 4.9515358114e-05
          0.00013870590192 6.2845574575e-05 4.9932765251e-05 0.00010740043945 5.3059218772e-05 4.9258505896e-05
          0.00010861204646 5.3232641221e-05 5.1731087297e-05 0.00013714720262 6.2084407546e-05 4.815545617e-05
          7.5586867752e-05 2.8634234695e-05 4.999473822e-05 0.00014021879178 6.0765702074e-05 4.9575493904e-05
          0.00010008550453 7.441573689e-05 5.1222585171e-05 7.6094162068e-05 2.7658406907e-05 4.9957969168e-05
          0.00013780714653 6.0600126744e-05 4.9914906413e-05 0.00010252171342 7.5620431744e-05 4.8633835831e-05
          0.00013640850375 6.2471408455e-05 5.0601356634e-05 0.00010691633361 5.1549497584e-05 5.1774830354e-05
          7.6070879004e-05 2.7552167012e-05 4.7509478463e-05 0.00010062522779 7.6458825788e-05 5.1810940931e-05
          7.6828160672e-05 2.8022179322e-05 5.0282284064e-05 0.00010755278345 5.11664839e-05 5.2422768931e-05
          0.00010204477439 7.4108575063e-05 5.0670791097e-05 0.00010035972809 7.6584248745e-05 4.7584031563e-05
          0.00010825583013 5.0526501582e-05 4.9315473007e-05 7.5452822784e-05 2.6559344406e-05 4.9172995205e-05
          7.6655582234e-05 2.886106995e-05 5.1049519243e-05 0.00010846803343 5.0212231145e-05 5.1194725529e-05
          0.00010124601249 7.4430266977e-05 5.2088053053e-05 0.00013786688214 6.3453728217e-05 5.0399117754e-05
          0.00010801769531 5.1141803851e-05 5.021160905e-05 7.5836695032e-05 3.0710445571e-05 5.0238224503e-05
          9.9909717392e-05 7.5523814303e-05 5.0807338994e-05 0.0001386187796 6.0918984673e-05 5.1367140259e-05
          0.00010986990674 5.1141720178e-05 4.9912352551e-05 9.8781107226e-05 7.5289419328e-05 5.1010174502e-05
          0.00013955170289 6.1386883317e-05 4.78431175e-05 0.00010117604688 7.6695767348e-05 4.9778362154e-05
          0.00010746890621 5.1376391639e-05 4.8742083891e-05 7.6950047514e-05 2.7308116842e-05 5.0895745517e-05
          7.5738724263e-05 2.9513425034e-05 5.0664817536e-05 0.00013765993936 6.1945684138e-05 4.8806654377e-05
          0.0001017304894 7.6469921623e-05 5.1753751904e-05 0.0001385902433 6.1311271566e-05 4.8867692385e-05
          0.00013794562255 6.0252819821e-05 5.2007650083e-05 7.6970558439e-05 3.0229477488e-05 4.8939629778e-05
          0.00010174338968 7.5106028817e-05 4.8943744332e-05 7.4298659456e-05 2.9701248422e-05 5.098177644e-05
          0.00010010832193 7.6828175224e-05 5.0884646043e-05 0.0001021088101 7.6412012277e-05 4.8123871238e-05
          9.9683507869e-05 7.5790165283e-05 4.9182850489e-05 0.00013710024359 6.0975500674e-05 4.9307531299e-05
          7.4763345765e-05 2.9424018066e-05 4.9692884204e-05 0.00010661739361 5.0205431762e-05 4.8891575716e-05
          0.00010072327859 7.5874668255e-05 5.0557100622e-05 0.00010920043133 5.2027829952e-05 5.1084069128e-05
          0.00010779777949 5.0259299314e-05 5.073860666e-05 7.551255112e-05 2.7811820473e-05 4.9135422159e-05
          0.00013814892736 6.2151855673e-05 5.1144710596e-05 0.00010855522123 5.1115097449e-05 4.710801295e-05
          0.00010771668167 5.2507941291e-05 4.9644124374e-05 0.00013966170081 6.2457256718e-05 5.0311602536e-05
          0.00010186303552 7.5970223406e-05 5.0895796448e-05 0.00010965917318 5.0553429901e-05 4.8817706556e-05
          7.7262404375e-05 2.8278025638e-05 4.827594239e-05 7.4620838859e-05 2.8904320061e-05 5.0568596635e-05
          0.00013704136654 6.0351077991e-05 5.0719245337e-05 7.7798082202e-05 2.8789518183e-05 4.9126527301e-05
          7.4834730185e-05 2.8137626941e-05 4.8157366109e-05 7.5670446677e-05 2.8985728932e-05 4.9149908591e-05
          0.00013996413327 6.2240942498e-05 5.1593982789e-05 0.00013790368394 6.2054874434e-05 4.9662543461e-05
          0.00010173310147 7.3955197877e-05 4.900928252e-05 0.00010875798762 5.1011011237e-05 4.8717978643e-05
          0.00010821039905 4.9894566473e-05 4.8646423238e-05 0.00013884239888 6.2392107793e-05 4.760205411e-05
          0.00010029998521 7.4831863458e-05 5.2794635849e-05 7.5660514995e-05 2.8577147532e-05 5.2310566389e-05
          0.00010897321772 5.0446353271e-05 5.2474380936e-05 7.5982985436e-05 2.9960418033e-05 4.8688245442e-05
          0.00010700408893 5.1723098295e-05 5.041793338e-05 0.00010631856276 5.0679107517e-05 4.9830130592e-05
          0.00010746512999 5.2394665545e-05 4.8269714171e-05 0.00010776524141 5.2587027312e-05 5.1976672694e-05
          0.00013774143008 6.237863272e-05 4.7311459639e-05 9.9153636256e-05 7.4675423093e-05 5.1495266234e-05
          7.6651631389e-05 2.8844146073e-05 4.9994800065e-05 0.00010841978656 5.165125549e-05 5.287991371e-05
          7.5102943811e-05 2.7265687095e-05 4.8423633416e-05 0.00010315932741 7.5117684901e-05 4.9851943913e-05
          0.00010982390813 5.1345694374e-05 5.1989612984e-05 0.00010643491987 5.2249946748e-05 5.0851162086e-05
          0.00010113472672 7.4909883551e-05 5.0575756177e-05 0.0001066448749 5.2547267842e-05 4.9479087465e-05
          7.7458047599e-05 2.9543482015e-05 4.9999707699e-05 7.5545853178e-05 2.8262431442e-05 5.0697446568e-05
          0.00014055568317 6.2062244979e-05 4.8527996114e-05 7.4883704656e-05 2.7287833291e-05 4.981172242e-05
          0.00013826669601 6.3570296334e-05 4.8951384088e-05 7.5241041486e-05 2.9178670957e-05 5.1546179748e-05
          9.9683391454e-05 7.6478252595e-05 4.9850623327e-05 7.542847743e-05 2.9968852687e-05 4.858909233e-05
          9.9842247437e-05 7.4933544965e-05 5.0061702495e-05 9.8556352896e-05 7.5846415712e-05 4.9686139391e-05
          0.00013900824706 6.1913859099e-05 4.9532038247e-05 7.3997907748e-05 2.865391798e-05 4.9452763051e-05
          0.00013894650328 6.3368839619e-05 5.0732742238e-05 0.00013933388982 6.108116213e-05 4.9801506975e-05
          7.6013529906e-05 2.714951188e-05 5.0878184993e-05 0.00013865702203 6.0856025812e-05 5.0003240176e-05
          0.0001024249359 7.5376832683e-05 4.9606434914e-05 0.00013719343406 6.1826329329e-05 5.0299033319e-05
          0.00010711260256 5.2378589317e-05 5.1159582654e-05 7.6002143032e-05 2.7872658393e-05 4.8417954531e-05
          0.00010071379802 7.5401374488e-05 5.1739552873e-05 0.00010178153752 7.4432595284e-05 4.9822770961e-05
          0.00010017141176 7.7269440226e-05 4.843762872e-05 0.00010735292017 5.0718259445e-05 4.9750993639e-05
          0.000109107772 5.0959213695e-05 5.0924063544e-05 0.00010118506907 7.4253221101e-05 5.1053724746e-05