<?xml version="1.0"?>
<VTKFile type="UnstructuredGrid" version="0.1" byte_order="LittleEndian" header_type="UInt32" compressor="vtkZLibDataCompressor">
  <UnstructuredGrid>
    <Piece NumberOfPoints="273" NumberOfCells="273">
      <PointData>
        <DataArray type="Int32" Name="id" format="ascii" RangeMin="1" RangeMax="273">
          8 6 5 11 12 13
          21 22 23 32 33 34
          44 45 46 47 48 49
          57 58 67 68 78 79
          80 81 82 83 94 95
          96 97 98 99 113 114
          115 116 117 118 138 139
          140 141 142 143 144 145
          160 161 162 163 164 165
          166 167 168 189 190 191
          192 193 194 195 196 229
          230 231 232 233 234 235
          236 237 238 239 240 241
          242 243 9 4 3 7
          14 15 16 17 24 25
          26 30 31 35 36 37
          41 50 51 52 53 54
          59 60 61 62 63 69
          70 71 72 84 85 86
          87 88 89 100 101 102
          103 104 105 106 107 119
          120 121 122 123 124 125
          126 127 128 129 130 146
          147 148 149 150 151 169
          170 171 172 173 174 175
          176 177 178 179 197 198
          199 200 201 202 203 204
          205 206 207 208 209 210
          211 212 213 214 215 216
          244 245 246 247 248 249
          250 251 252 253 254 255
          256 257 258 259 260 261
          10 1 18 19 27 28
          38 39 42 55 56 64
          73 74 75 76 77 90
          108 109 110 111 112 131
          132 133 152 153 154 155
          156 157 180 181 182 183
          184 185 217 218 219 220
          221 222 223 224 262 263
          264 265 266 267 268 2
          20 29 40 43 65 66
          91 92 93 134 135 136
          137 158 159 186 187 188
          225 226 227 228 269 270
          271 272 273
        </DataArray>
        <DataArray type="Int32" Name="type" format="ascii" RangeMin="1" RangeMax="1">
          1 1 1 1 1 1
          1 1 1 1 1 1
          1 1 1 1 1 1
          1 1 1 1 1 1
          1 1 1 1 1 1
          1 1 1 1 1 1
          1 1 1 1 1 1
          1 1 1 1 1 1
          1 1 1 1 1 1
          1 1 1 1 1 1
          1 1 1 1 1 1
          1 1 1 1 1 1
          1 1 1 1 1 1
          1 1 1 1 1 1
          1 1 1 1 1 1
          1 1 1 1 1 1
          1 1 1 1 1 1
          1 1 1 1 1 1
          1 1 1 1 1 1
          1 1 1 1 1 1
          1 1 1 1 1 1
          1 1 1 1 1 1
          1 1 1 1 1 1
          1 1 1 1 1 1
          1 1 1 1 1 1
          1 1 1 1 1 1
          1 1 1 1 1 1
          1 1 1 1 1 1
          1 1 1 1 1 1
          1 1 1 1 1 1
          1 1 1 1 1 1
          1 1 1 1 1 1
          1 1 1 1 1 1
          1 1 1 1 1 1
          1 1 1 1 1 1
          1 1 1 1 1 1
          1 1 1 1 1 1
          1 1 1 1 1 1
          1 1 1 1 1 1
          1 1 1 1 1 1
          1 1 1 1 1 1
          1 1 1 1 1 1
          1 1 1 1 1 1
          1 1 1 1 1 1
          1 1 1 1 1 1
          1 1 1
        </DataArray>
        <DataArray type="Float64" Name="diameter" format="ascii" RangeMin="1.0181129362e-06" RangeMax="1.3575254411e-06">
          1.2604390203e-06 1.2038921168e-06 1.2369400688e-06 1.1113196992e-06 1.3030596986e-06 1.1885416309e-06
          1.1670389356e-06 1.2806943966e-06 1.2425394012e-06 1.0696083463e-06 1.2457727715e-06 1.1474277672e-06
          1.1015160084e-06 1.3050970917e-06 1.1296363889e-06 1.0593644245e-06 1.2458530409e-06 1.105966301e-06
          1.312601684e-06 1.3535323123e-06 1.0815097373e-06 1.3535851679e-06 1.2189599819e-06 1.2102771396e-06
          1.2422601078e-06 1.2277841448e-06 1.3077825566e-06 1.2089373088e-06 1.244682816e-06 1.1318879655e-06
          1.1955601295e-06 1.1829887556e-06 1.2995925079e-06 1.1508273906e-06 1.1603817409e-06 1.0928415565e-06
          1.0233809707e-06 1.1353012229e-06 1.1309435271e-06 1.3495830238e-06 1.2968987109e-06 1.0824822986e-06
          1.2858214023e-06 1.3575254411e-06 1.3363081201e-06 1.042777805e-06 1.248079474e-06 1.303095638e-06
          1.2190561847e-06 1.2136138904e-06 1.1481974036e-06 1.2524257848e-06 1.3533153288e-06 1.2051437355e-06
          1.2276584221e-06 1.2418107701e-06 1.1493214908e-06 1.2162269566e-06 1.1167017577e-06 1.2246297136e-06
          1.1218057806e-06 1.1483462174e-06 1.1662457232e-06 1.1899390358e-06 1.1375384481e-06 1.0771625751e-06
          1.1280174844e-06 1.0343716707e-06 1.1281921634e-06 1.16892005e-06 1.0992022752e-06 1.0911362909e-06
          1.0583834749e-06 1.1093697544e-06 1.0903272477e-06 1.1431041307e-06 1.1172696695e-06 1.0605484643e-06
          1.1249484419e-06 1.1147476811e-06 1.3295905052e-06 1.3173669954e-06 1.2289904215e-06 1.1646792678e-06
          1.2360311259e-06 1.1773722799e-06 1.0816875598e-06 1.0950334508e-06 1.2114861703e-06 1.2245738847e-06
          1.1272927525e-06 1.0643889399e-06 1.1647455129e-06 1.2647641049e-06 1.2660625841e-06 1.12753279e-06
          1.2302584311e-06 1.1844878725e-06 1.1562405294e-06 1.148276867e-06 1.1293776586e-06 1.2350659131e-06
          1.1508574532e-06 1.2886476741e-06 1.1336793812e-06 1.06594126e-06 1.1463856264e-06 1.0517496941e-06
          1.3473437464e-06 1.0626707855e-06 1.2379348422e-06 1.2557782972e-06 1.1018861399e-06 1.3446294871e-06
          1.2352102084e-06 1.2094991446e-06 1.2128686193e-06 1.07428107e-06 1.2007107467e-06 1.217606317e-06
          1.258865217e-06 1.2209500952e-06 1.312509018e-06 1.1584489711e-06 1.1754505778e-06 1.191744962e-06
          1.1202999007e-06 1.3194263926e-06 1.1417372011e-06 1.1264140646e-06 1.3503711636e-06 1.3484539393e-06
          1.1793385421e-06 1.185159606e-06 1.1892099685e-06 1.0348006024e-06 1.1468926994e-06 1.2191875188e-06
          1.2955536461e-06 1.3225509736e-06 1.3420351949e-06 1.2256285076e-06 1.2772375986e-06 1.2404607378e-06
          1.2994233802e-06 1.2033838881e-06 1.1924456487e-06 1.2491703481e-06 1.2145899217e-06 1.2513612675e-06
          1.3345811581e-06 1.2054507851e-06 1.2266614585e-06 1.207978189e-06 1.1749623024e-06 1.1619996815e-06
          1.2082318836e-06 1.1922446007e-06 1.1513840275e-06 1.2104388697e-06 1.2360413146e-06 1.218128399e-06
          1.1617841576e-06 1.1796163629e-06 1.1657319735e-06 1.2312042395e-06 1.1247369503e-06 1.1963349488e-06
          1.2166894058e-06 1.1845556855e-06 1.1839781641e-06 1.1404566628e-06 1.101840555e-06 1.1417810462e-06
          1.0385403268e-06 1.1831731106e-06 1.0823364615e-06 1.1596364413e-06 1.0658092035e-06 1.1167981752e-06
          1.1067226113e-06 1.0920124073e-06 1.1361870976e-06 1.127140773e-06 1.1630330175e-06 1.0579201794e-06
          1.1873480249e-06 1.0651556009e-06 1.1336666127e-06 1.1297428947e-06 1.0704582037e-06 1.1412746601e-06
          1.3205282574e-06 1.1779743207e-06 1.1664858031e-06 1.1026868718e-06 1.0903170881e-06 1.1931814343e-06
          1.3542099121e-06 1.1151036734e-06 1.2604417792e-06 1.1270320211e-06 1.2393128735e-06 1.3490716265e-06
          1.0995004409e-06 1.3135754327e-06 1.2432847319e-06 1.2095959717e-06 1.2654533217e-06 1.2646576947e-06
          1.1263393802e-06 1.167385786e-06 1.2021577474e-06 1.1904256093e-06 1.2167610879e-06 1.3193544869e-06
          1.0955526685e-06 1.2154014122e-06 1.2630536422e-06 1.0293743472e-06 1.2759110754e-06 1.2977781941e-06
          1.3429984319e-06 1.0976754056e-06 1.2397532167e-06 1.2490436896e-06 1.2628673956e-06 1.2323632683e-06
          1.2280664656e-06 1.2376214148e-06 1.174491405e-06 1.2034753581e-06 1.2262110443e-06 1.1819797264e-06
          1.1946445973e-06 1.2157848155e-06 1.2101331619e-06 1.1014376722e-06 1.0987349889e-06 1.1291493736e-06
          1.0739047843e-06 1.0473118073e-06 1.1256303989e-06 1.1510323029e-06 1.0648789496e-06 1.1579934152e-06
          1.2930556046e-06 1.2144283975e-06 1.1188942842e-06 1.242026124e-06 1.1335265931e-06 1.0413430307e-06
          1.1396626876e-06 1.2723047481e-06 1.0495893678e-06 1.3247621686e-06 1.2103791863e-06 1.1674555693e-06
          1.3469923451e-06 1.247230268e-06 1.3009111151e-06 1.2276094247e-06 1.2340426354e-06 1.2652002569e-06
          1.2108136904e-06 1.1487984407e-06 1.1823993506e-06 1.1519778204e-06 1.1423205662e-06 1.189937621e-06
          1.0181129362e-06 1.1604944275e-06 1.1041441103e-06
        </DataArray>
      </PointData>
      <CellData>
      </CellData>
      <Points>
        <DataArray type="Float32" Name="Points" NumberOfComponents="3" format="ascii" RangeMin="8.414701557e-05" RangeMax="0.00025565778879">
          5.2327304729e-05 4.7991296015e-05 5.0553931942e-05 2.8576425393e-05 6.377272075e-05 5.1163402532e-05
          4.1847510147e-05 7.4222254625e-05 5.1836468629e-05 5.2652245358e-05 4.5801916713e-05 4.7671856009e-05
          2.9968136005e-05 6.4234583988e-05 4.957587953e-05 4.3063631892e-05 7.5204094173e-05 5.068446626e-05
          2.9384713343e-05 6.3162231527e-05 5.1438491937e-05 5.3266889154e-05 4.4667252951e-05 5.0007362006e-05
          4.0863065806e-05 7.4438226875e-05 4.9208680139e-05 5.1880153478e-05 4.6951299737e-05 4.8535515816e-05
          4.0888189687e-05 7.5024385296e-05 4.9949372624e-05 3.0167146178e-05 6.1405204178e-05 4.8990452342e-05
          3.0244889786e-05 6.3055755163e-05 4.8687419621e-05 5.3211824707e-05 4.607835217e-05 4.9145783123e-05
          4.2727679102e-05 7.5235482655e-05 4.8476438678e-05 2.9487813663e-05 6.3578430854e-05 5.2328105085e-05
          5.2931001846e-05 4.6146553359e-05 5.168714415e-05 4.2338884668e-05 7.4110444984e-05 4.9100435717e-05
          5.3976185882e-05 4.7079425713e-05 5.1057370001e-05 3.0963037716e-05 6.2459104811e-05 4.9399517593e-05
          4.251172868e-05 7.3115043051e-05 5.0864840887e-05 4.1949282604e-05 7.4896321166e-05 4.9317055527e-05
          5.1845137932e-05 4.7109449952e-05 5.1373157476e-05 2.9351158446e-05 6.4340063545e-05 4.8613637773e-05
          3.1380332075e-05 6.3461106038e-05 5.0056507462e-05 4.2086576286e-05 7.5596275565e-05 5.0315909903e-05
          2.8986842153e-05 6.1507947976e-05 5.0701368309e-05 5.4181989981e-05 4.5544540626e-05 5.1235248975e-05
          5.1929295296e-05 4.5570606744e-05 4.8260699259e-05 4.2894662329e-05 7.4244730058e-05 4.8711524869e-05
          5.4643609474e-05 4.671431816e-05 4.9617843615e-05 4.1604795115e-05 7.5885021943e-05 4.9501570174e-05
          3.0458506444e-05 6.2496175815e-05 5.1377013733e-05 5.2024864999e-05 4.5690485422e-05 4.9435086112e-05
          5.2272582252e-05 4.6661934903e-05 5.0011822168e-05 3.0687344406e-05 6.1688660935e-05 4.9272228352e-05
          2.9056538551e-05 6.2518338382e-05 4.9003370805e-05 4.1132476326e-05 7.3363669799e-05 4.9348564062e-05
          2.9821647331e-05 6.2077764596e-05 5.0613212807e-05 4.2095998651e-05 7.4568786658e-05 5.0567225117e-05
          5.2802759456e-05 4.7677742259e-05 4.9513382692e-05 4.1549970774e-05 7.3630704719e-05 5.0701128202e-05
          2.9743530831e-05 6.4057850977e-05 5.0728842325e-05 5.2915194829e-05 4.5106553443e-05 5.0917922636e-05
          4.0800041461e-05 7.5046446e-05 5.1196457207e-05 5.3862975619e-05 4.7364817874e-05 4.9972823035e-05
          4.3149309931e-05 7.3857860116e-05 5.0694892707e-05 2.8906015359e-05 6.2412895204e-05 4.9972728448e-05
          2.8975313398e-05 6.3586463511e-05 5.0200280384e-05 4.1537859943e-05 7.4183677498e-05 4.8205158237e-05
          5.324727681e-05 4.5714397856e-05 5.0032213039e-05 5.1570594223e-05 4.7179895773e-05 5.0155336794e-05
          2.844329174e-05 6.4087660576e-05 4.9378537369e-05 3.0299564969e-05 6.3222192694e-05 5.0251244829e-05
          4.1012910515e-05 7.5869706052e-05 5.0403778005e-05 4.1950355808e-05 7.604657003e-05 4.8459871323e-05
          3.001622099e-05 6.2650520704e-05 5.240174869e-05 4.2886327719e-05 7.5634045061e-05 4.9413127272e-05
          2.9440889193e-05 6.2760911533e-05 5.076465095e-05 4.3073720008e-05 7.4614021287e-05 4.9761158152e-05
          5.2883398894e-05 4.6847704652e-05 5.0817445299e-05 5.3786839999e-05 4.6256649512e-05 5.064670404e-05
          5.2448423958e-05 4.5085700549e-05 4.941338193e-05 4.2253806896e-05 7.34520072e-05 4.8047597375e-05
          5.413234976e-05 4.5791908633e-05 4.9968373787e-05 5.342917575e-05 4.6423021558e-05 4.8177731514e-05
          5.2919498557e-05 4.7189929319e-05 4.8127792979e-05 2.9752836781e-05 6.2008206442e-05 4.9660407967e-05
          2.9641072615e-05 6.3090745243e-05 4.9532507546e-05 2.9780630939e-05 6.428641791e-05 5.1466558944e-05
          4.2023239075e-05 7.3648297985e-05 4.9909245718e-05 4.1928477003e-05 7.2861730587e-05 4.9740596296e-05
          5.2189610869e-05 4.58298382e-05 5.0557853683e-05 5.2403076552e-05 4.6677716455e-05 4.9022401072e-05
          3.0756127671e-05 6.2079649069e-05 4.8203488404e-05 2.8509331969e-05 6.3183884777e-05 4.8470556067e-05
          4.1562390834e-05 7.2807786637e-05 5.0535712944e-05 3.0645733204e-05 6.1833947257e-05 5.0274706155e-05
          4.0745348088e-05 7.4144678365e-05 5.1171318773e-05 5.3188374295e-05 4.6671273594e-05 4.9931622925e-05
          7.4750118074e-05 2.9847235055e-05 5.0161197578e-05 0.00010656402446 5.0745547924e-05 4.8758141929e-05
          0.00013768977078 6.0760456108e-05 5.0753769756e-05 0.00010245610611 7.5225470937e-05 5.0215148804e-05
          7.7279983088e-05 2.9019969588e-05 4.9361060519e-05 0.00010977801139 5.1390954468e-05 5.1217532018e-05
          0.00013758386194 6.1664104578e-05 5.1143630117e-05 9.981837502e-05 7.629605534e-05 5.1670998801e-05
          0.00010668920004 5.2413604863e-05 5.0358019507e-05 7.4925163062e-05 2.8328233384e-05 4.84486809e-05
          0.00013911738642 6.2312712544e-05 4.8463462008e-05 0.00010146449495 7.6641415944e-05 4.8828478612e-05
          0.00010123752145 7.5104238931e-05 5.1116974646e-05 7.5633419328e-05 2.9100792744e-05 4.8823778343e-05
          0.00013938776101 6.1811493651e-05 5.160753426e-05 0.00010734902753 5.1875802455e-05 4.9385580496e-05
          0.00013831874821 6.1840386479e-05 4.9839898566e-05 0.00010653024219 5.2493622206e-05 4.9188813136e-05
          7.7091986896e-05 2.9570928746e-05 5.0418911997e-05 0.00010815204587 5.1919192629e-05 5.1596733101e-05
          7.6052594522e-05 2.7994556149e-05 5.164151662e-05 0.00010164651758 7.4390278314e-05 4.8793510359e-05
          7.5774478319e-05 3.0065451938e-05 5.1346596592e-05 0.00010076901526 7.5846386608e-05 4.9950427638e-05
          0.00013845443027 6.257667701e-05 4.919714047e-05 0.00010098339408 7.6738375355e-05 5.0792426919e-05
          0.00010040448251 7.6473115769e-05 4.9131402193e-05 0.0001392622944 6.0747948737e-05 4.8555662943e-05
          0.00010898772598 5.2201965445e-05 5.0806382205e-05 0.00013853113342 6.1375802034e-05 5.2541814512e-05
          0.0001088349818 5.1421193348e-05 4.8435762437e-05 0.00010779036529 5.036892253e-05 4.8685633374e-05
          7.6278323832e-05 2.9401060601e-05 4.9748192396e-05 0.00010734888201 5.0576432841e-05 5.0937600463e-05
          0.00013861617481 6.2096652982e-05 4.7385688958e-05 7.5278978329e-05 2.8341564757e-05 5.1077411626e-05
          0.00013997583301 6.1820210249e-05 4.8905218136e-05 0.00010061764624 7.5525669672e-05 4.901340435e-05
          7.4968462286e-05 2.7572812542e-05 5.0285019825e-05 0.0001002594654 7.487172843e-05 5.2174178563e-05
          7.6293988968e-05 2.8807427952e-05 5.2138850151e-05 0.00010875586304 5.0900180213e-05 5.1990744396e-05
          7.6007905591e-05 2.7616502848e-05 4.9201411457e-05 0.00010069248674 7.4266637967e-05 5.0152371841e-05
          0.00013786039199 6.3212813984e-05 4.9206533731e-05 7.5085292337e-05 2.9537110095e-05 5.1897881349e-05
          0.0001085540498 5.1741008065e-05 4.9611404393e-05 0.00013845218928 6.2355364207e-05 5.1204293413e-05
          9.9571472674e-05 7.6124924817e-05 5.0082508096e-05 0.00010092341108 7.6036412793e-05 4.8170812079e-05
          0.00010809941159 5.1179293223e-05 4.7861325584e-05 0.00010768204083 5.2480801969e-05 4.9972608394e-05
          7.5494222983e-05 2.9936089049e-05 4.9223493988e-05 0.00010022459901 7.5042800745e-05 4.9722835683e-05
          9.8756871012e-05 7.6010088378e-05 4.9072295951e-05 0.00013777472486 6.0907106672e-05 4.8371228331e-05
          0.00013897407916 6.1276870838e-05 5.0577953516e-05 0.00013921047503 6.2310304202e-05 4.9281024985e-05
          0.00013980190852 6.2004386564e-05 5.0472546718e-05 0.00010163530533 7.5780197221e-05 5.0493930758e-05
          0.00010916965402 5.0777547585e-05 4.9374582886e-05 7.6145137427e-05 2.996141302e-05 4.829655154e-05
          0.00010719720012 5.1323557273e-05 5.0210670452e-05 0.0001070923754 5.0334048865e-05 4.9791298807e-05
          7.6619493484e-05 2.8457809094e-05 4.8622932809e-05 7.4912648415e-05 2.8267353628e-05 4.942065425e-05
          0.00013891060371 6.2735161919e-05 5.0187383749e-05 0.00010756834672 5.2701238019e-05 4.8838359362e-05
          0.00010823865887 5.2823474107e-05 5.1584032917e-05 0.00013769468933 6.2104219978e-05 4.7986475693e-05
          7.527328853e-05 2.8860076782e-05 5.0133960031e-05 0.00013954020687 6.115121505e-05 4.9733709602e-05
          9.9647317256e-05 7.4755320384e-05 5.1260380133e-05 7.6185751823e-05 2.7680185667e-05 5.0263472076e-05
          0.00013814000704 6.0896945797e-05 4.9861064326e-05 0.00010241906421 7.5577270763e-05 4.9117159506e-05
          0.00013690529158 6.2167986471e-05 5.0425645895e-05 0.00010715012468 5.2056435379e-05 5.1324244851e-05
          7.6037365943e-05 2.7775164199e-05 4.809195525e-05 0.00010063614172 7.5756754086e-05 5.1677667216e-05
          7.6329699368e-05 2.8654627386e-05 5.012337715e-05 0.00010793285037 5.1514296501e-05 5.2476098062e-05
          0.0001016884562 7.4428229709e-05 5.0067974371e-05 0.0001004068763 7.6706906839e-05 4.8203590268e-05
          0.00010808806837 5.0606315199e-05 4.9731766921e-05 7.5048890722e-05 2.7237718314e-05 4.8989248171e-05
          7.6514486864e-05 2.8809727155e-05 5.1016057114e-05 0.00010870584811 5.1093898946e-05 5.0983886467e-05
          0.00010124521214 7.4347386544e-05 5.1352006267e-05 0.00013779228902 6.265740376e-05 5.0226022722e-05
          0.00010821242904 5.1251863624e-05 5.0464921515e-05 7.56540976e-05 3.0454470107e-05 5.0315960834e-05
          9.9936711194e-05 7.5463009125e-05 5.0751841627e-05 0.00013860545005 6.1166174419e-05 5.1405648264e-05
          0.00010974147881 5.1125123719e-05 5.0046346587e-05 9.9107164715e-05 7.541818195e-05 5.1625589549e-05
          0.00013937764743 6.1495498812e-05 4.7929457651e-05 0.00010172823386 7.6562580944e-05 4.9814512749e-05
          0.00010753940296 5.1409118896e-05 4.8648747907e-05 7.6786724094e-05 2.7397514714e-05 5.0949267461e-05
          7.5799762271e-05 2.9474866096e-05 5.0582166295e-05 0.00013769314683 6.1947546783e-05 4.8794652685e-05
          0.00010159826343 7.6377335063e-05 5.1623253967e-05 0.000138673131 6.1309372541e-05 4.9138849135e-05
          0.00013799429871 6.0932346969e-05 5.1784285461e-05 7.6540207374e-05 2.9868053389e-05 4.9048499932e-05
          0.00010141751409 7.498019113e-05 4.9279526138e-05 7.4334922829e-05 2.9508981243e-05 5.1082650316e-05
          0.00010014183499 7.6472191722e-05 5.0835169532e-05 0.00010203861893 7.628640742e-05 4.8262267228e-05
          9.9810749816e-05 7.6051961514e-05 4.9315487558e-05 0.00013745273463 6.0960774135e-05 4.9400514399e-05
          0.00021987948276 6.0909933381e-05 4.9245627451e-05 0.00021726216073 7.8613375081e-05 5.0354556151e-05
          0.00022110813006 6.0243237385e-05 5.0599352107e-05 0.00021858862601 7.8521014075e-05 5.1010491006e-05
          0.0002168235369 7.9613651906e-05 5.1558050473e-05 0.00022215745412 6.0685026256e-05 4.9861089792e-05
          0.00022097530018 6.137642049e-05 5.0624214055e-05 0.00021840159025 7.690134953e-05 4.9801194109e-05
          0.00021835007647 7.8577955719e-05 4.8700952902e-05 0.00022155225452 6.0257149016e-05 4.877829997e-05
          0.00022032420384 5.9999027144e-05 4.9444133765e-05 0.00021743387333 7.7616379713e-05 5.0810926041e-05
          0.00022083548538 6.1665326939e-05 4.9921298341e-05 0.00021942344029 7.8094970377e-05 4.8884834541e-05
          0.00022035370057 6.2021434132e-05 5.1387622079e-05 0.00021752795146 7.8399163613e-05 4.9265705456e-05
          0.00021778928931 8.0000078015e-05 4.95912318e-05 0.00022207410075 5.9532409068e-05 5.108228288e-05
          0.00021803496929 7.87960671e-05 5.1474427892e-05 0.0002221595787 6.0016034695e-05 4.943193926e-05
          0.00021850547637 7.9850920883e-05 5.030061584e-05 0.00022020841425 6.0533137002e-05 5.0650774938e-05
          0.00022162984533 6.1088503571e-05 4.7312205425e-05 0.00021951629606 7.9060839198e-05 5.0589434977e-05
          0.00021963150357 6.1166771047e-05 5.1266895753e-05 0.0002176832204 7.8875556937e-05 4.7696797992e-05
          0.00021915898833 7.7785880421e-05 5.0025148084e-05 0.00022032517882 5.964887896e-05 5.0051054131e-05
          0.00021869408374 7.7395867265e-05 5.0781702157e-05 0.0002219400194 6.194258458e-05 4.9811867939e-05
          0.00021915958496 7.901522622e-05 4.9505833886e-05 0.00022164278198 6.1177393945e-05 5.1694132708e-05
          0.00021984115301 6.1154874857e-05 4.8139980208e-05 0.00021805649158 7.8037388448e-05 4.9975224101e-05
          0.00021865210147 7.9867320892e-05 4.8825553677e-05 0.00022104209347 5.9202884586e-05 5.0708589697e-05
          0.00021767370345 7.9459809058e-05 5.0953440223e-05 0.00022101696231 6.0275651776e-05 4.7889931011e-05
          0.00021698977798 7.83965952e-05 5.1510323829e-05 0.00022140059446 5.9797846916e-05 4.9652549933e-05
          0.00021643283253 7.9353259935e-05 5.0490754802e-05 0.00022204576817 6.0694361309e-05 5.0945414841e-05
          0.00022083237127 6.0912414483e-05 4.8998557759e-05 0.00021787523292 7.8624827438e-05 5.2506693464e-05
          0.00022118419292 5.9495112509e-05 4.860313129e-05 0.00021884818852 7.9218079918e-05 4.805761273e-05
          0.00021844670118 7.8810400737e-05 4.9966871302e-05 0.00021852212376 7.7085533121e-05 4.8678204621e-05
          0.00022145398543 6.138230674e-05 4.9049329391e-05 0.00022044098296 6.0073485656e-05 5.1637318393e-05
          0.00021966436179 6.1252561864e-05 5.0155478675e-05 0.0002199117589 5.9316764236e-05 5.0912367442e-05
          0.00022059222101 6.1136808654e-05 5.167823474e-05 0.00024643566576 2.6799627449e-05 5.1227278163e-05
          0.00024652379216 2.5740573619e-05 5.0202947023e-05 0.0002488543978 2.6750753022e-05 4.8347137636e-05
          0.00024853213108 2.7941847293e-05 4.891664139e-05 0.00024799426319 2.6113348213e-05 5.0883118092e-05
          0.00024898169795 2.6207171686e-05 5.1313869335e-05 0.00024744399707 2.6945179343e-05 4.8962618166e-05
          0.00024756157654 2.5785388061e-05 4.9768656027e-05 0.00024668182596 2.6389510822e-05 4.9434285756e-05
          0.00024835343356 2.5403101972e-05 4.9949059758e-05 0.00024880244746 2.5565657779e-05 4.8356698244e-05
          0.00024784565903 2.8229724194e-05 5.0231577916e-05 0.00024844935979 2.6086900107e-05 4.9352656788e-05
          0.00024735959596 2.7330230296e-05 4.9638492783e-05 0.00024796309299 2.7238815164e-05 5.040700853e-05
          0.00024817220401 2.5222774639e-05 5.1673549024e-05 0.00024711334845 2.5635612474e-05 5.1079507102e-05
          0.00024810567265 2.6211320801e-05 5.1997933042e-05 0.00024755302002 2.5975779863e-05 4.8606991186e-05
          0.00024729143479 2.6752399208e-05 5.0660008128e-05 0.00024825634318 2.6860603612e-05 4.9091515393e-05
          0.00024928533821 2.6399176932e-05 5.0207654567e-05 0.00024892159854 2.8287806344e-05 5.038846939e-05
          0.00024741806556 2.8205151466e-05 4.8998084822e-05 0.00024739201763 2.7073059755e-05 4.7870071285e-05
          0.00024828364258 2.6504818379e-05 5.0242288125e-05 0.00024792115437 2.4823202693e-05 5.0690250646e-05
          0.00024939325522 2.5588526114e-05 4.9518290325e-05
        </DataArray>
      </Points>
      <Cells>
        <DataArray type="Int64" Name="connectivity" format="ascii" RangeMin="0" RangeMax="272">
          0 1 2 3 4 5
          6 7 8 9 10 11
          12 13 14 15 16 17
          18 19 20 21 22 23
          24 25 26 27 28 29
          30 31 32 33 34 35
          36 37 38 39 40 41
          42 43 44 45 46 47
          48 49 50 51 52 53
          54 55 56 57 58 59
          60 61 62 63 64 65
          66 67 68 69 70 71
          72 73 74 75 76 77
          78 79 80 81 82 83
          84 85 86 87 88 89
          90 91 92 93 94 95
          96 97 98 99 100 101
          102 103 104 105 106 107
          108 109 110 111 112 113
          114 115 116 117 118 119
          120 121 122 123 124 125
          126 127 128 129 130 131
          132 133 134 135 136 137
          138 139 140 141 142 143
          144 145 146 147 148 149
          150 151 152 153 154 155
          156 157 158 159 160 161
          162 163 164 165 166 167
          168 169 170 171 172 173
          174 175 176 177 178 179
          180 181 182 183 184 185
          186 187 188 189 190 191
          192 193 194 195 196 197
          198 199 200 201 202 203
          204 205 206 207 208 209
          210 211 212 213 214 215
          216 217 218 219 220 221
          222 223 224 225 226 227
          228 229 230 231 232 233
          234 235 236 237 238 239
          240 241 242 243 244 245
          246 247 248 249 250 251
          252 253 254 255 256 257
          258 259 260 261 262 263
          264 265 266 267 268 269
          270 271 272
        </DataArray>
        <DataArray type="Int64" Name="offsets" format="ascii" RangeMin="1" RangeMax="273">
          1 2 3 4 5 6
          7 8 9 10 11 12
          13 14 15 16 17 18
          19 20 21 22 23 24
          25 26 27 28 29 30
          31 32 33 34 35 36
          37 38 39 40 41 42
          43 44 45 46 47 48
          49 50 51 52 53 54
          55 56 57 58 59 60
          61 62 63 64 65 66
          67 68 69 70 71 72
          73 74 75 76 77 78
          79 80 81 82 83 84
          85 86 87 88 89 90
          91 92 93 94 95 96
          97 98 99 100 101 102
          103 104 105 106 107 108
          109 110 111 112 113 114
          115 116 117 118 119 120
          121 122 123 124 125 126
          127 128 129 130 131 132
          133 134 135 136 137 138
          139 140 141 142 143 144
          145 146 147 148 149 150
          151 152 153 154 155 156
          157 158 159 160 161 162
          163 164 165 166 167 168
          169 170 171 172 173 174
          175 176 177 178 179 180
          181 182 183 184 185 186
          187 188 189 190 191 192
          193 194 195 196 197 198
          199 200 201 202 203 204
          205 206 207 208 209 210
          211 212 213 214 215 216
          217 218 219 220 221 222
          223 224 225 226 227 228
          229 230 231 232 233 234
          235 236 237 238 239 240
          241 242 243 244 245 246
          247 248 249 250 251 252
          253 254 255 256 257 258
          259 260 261 262 263 264
          265 266 267 268 269 270
          271 272 273
        </DataArray>
        <DataArray type="UInt8" Name="types" format="ascii" RangeMin="1" RangeMax="1">
          1 1 1 1 1 1
          1 1 1 1 1 1
          1 1 1 1 1 1
          1 1 1 1 1 1
          1 1 1 1 1 1
          1 1 1 1 1 1
          1 1 1 1 1 1
          1 1 1 1 1 1
          1 1 1 1 1 1
          1 1 1 1 1 1
          1 1 1 1 1 1
          1 1 1 1 1 1
          1 1 1 1 1 1
          1 1 1 1 1 1
          1 1 1 1 1 1
          1 1 1 1 1 1
          1 1 1 1 1 1
          1 1 1 1 1 1
          1 1 1 1 1 1
          1 1 1 1 1 1
          1 1 1 1 1 1
          1 1 1 1 1 1
          1 1 1 1 1 1
          1 1 1 1 1 1
          1 1 1 1 1 1
          1 1 1 1 1 1
          1 1 1 1 1 1
          1 1 1 1 1 1
          1 1 1 1 1 1
          1 1 1 1 1 1
          1 1 1 1 1 1
          1 1 1 1 1 1
          1 1 1 1 1 1
          1 1 1 1 1 1
          1 1 1 1 1 1
          1 1 1 1 1 1
          1 1 1 1 1 1
          1 1 1 1 1 1
          1 1 1 1 1 1
          1 1 1 1 1 1
          1 1 1 1 1 1
          1 1 1 1 1 1
          1 1 1 1 1 1
          1 1 1 1 1 1
          1 1 1 1 1 1
          1 1 1
        </DataArray>
      </Cells>
    </Piece>
  </UnstructuredGrid>
</VTKFile>
