<?xml version="1.0"?>
<VTKFile type="UnstructuredGrid" version="0.1" byte_order="LittleEndian" header_type="UInt32" compressor="vtkZLibDataCompressor">
  <UnstructuredGrid>
    <Piece NumberOfPoints="509" NumberOfCells="509">
      <PointData>
        <DataArray type="Int32" Name="id" format="ascii" RangeMin="1" RangeMax="509">
          8 6 5 11 12 13
          21 22 23 32 33 34
          44 45 46 47 48 49
          57 58 67 68 78 79
          80 81 82 83 94 95
          96 97 98 99 113 114
          115 116 117 118 138 139
          140 141 142 143 144 145
          160 161 162 163 164 165
          166 167 168 189 190 191
          192 193 194 195 196 229
          230 231 232 233 234 235
          236 237 238 239 240 241
          242 243 274 275 276 277
          278 279 280 281 282 283
          284 285 286 287 313 314
          315 316 317 318 319 320
          321 322 323 324 371 372
          373 374 375 376 377 378
          379 380 381 382 383 384
          385 386 447 448 449 450
          451 452 453 454 455 456
          457 458 459 460 461 462
          463 464 465 466 467 9
          4 3 7 14 15 16
          17 24 25 26 30 31
          35 36 37 41 50 51
          52 53 54 59 60 61
          62 63 69 70 71 72
          84 85 86 87 88 89
          100 101 102 103 104 105
          106 107 119 120 121 122
          123 124 125 126 127 128
          129 130 146 147 148 149
          150 151 169 170 171 172
          173 174 175 176 177 178
          179 197 198 199 200 201
          202 203 204 205 206 207
          208 209 210 211 212 213
          214 215 216 244 245 246
          247 248 249 250 251 252
          253 254 255 256 257 258
          259 260 261 288 289 290
          291 292 293 294 295 296
          297 298 299 300 301 325
          326 327 328 329 330 331
          332 333 334 335 336 337
          338 339 340 341 342 343
          344 345 346 347 387 388
          389 390 391 392 393 394
          395 396 397 398 399 400
          401 402 403 404 405 406
          407 408 409 410 411 412
          413 414 415 416 417 418
          419 420 421 422 423 468
          469 470 471 472 473 474
          475 476 477 478 479 480
          481 482 483 484 485 486
          487 488 489 490 491 492
          493 494 495 496 10 1
          18 19 27 28 38 39
          42 55 56 64 73 74
          75 76 77 90 108 109
          110 111 112 131 132 133
          152 153 154 155 156 157
          180 181 182 183 184 185
          217 218 219 220 221 222
          223 224 262 263 264 265
          266 267 268 302 303 304
          305 306 307 308 348 349
          350 351 352 353 354 355
          356 357 358 359 360 361
          362 363 424 425 426 427
          428 429 430 431 432 433
          434 435 436 437 497 498
          499 500 501 502 503 2
          20 29 40 43 65 66
          91 92 93 134 135 136
          137 158 159 186 187 188
          225 226 227 228 269 270
          271 272 273 309 310 311
          312 364 365 366 367 368
          369 370 438 439 440 441
          442 443 444 445 446 504
          505 506 507 508 509
        </DataArray>
        <DataArray type="Int32" Name="type" format="ascii" RangeMin="1" RangeMax="1">
          1 1 1 1 1 1
          1 1 1 1 1 1
          1 1 1 1 1 1
          1 1 1 1 1 1
          1 1 1 1 1 1
          1 1 1 1 1 1
          1 1 1 1 1 1
          1 1 1 1 1 1
          1 1 1 1 1 1
          1 1 1 1 1 1
          1 1 1 1 1 1
          1 1 1 1 1 1
          1 1 1 1 1 1
          1 1 1 1 1 1
          1 1 1 1 1 1
          1 1 1 1 1 1
          1 1 1 1 1 1
          1 1 1 1 1 1
          1 1 1 1 1 1
          1 1 1 1 1 1
          1 1 1 1 1 1
          1 1 1 1 1 1
          1 1 1 1 1 1
          1 1 1 1 1 1
          1 1 1 1 1 1
          1 1 1 1 1 1
          1 1 1 1 1 1
          1 1 1 1 1 1
          1 1 1 1 1 1
          1 1 1 1 1 1
          1 1 1 1 1 1
          1 1 1 1 1 1
          1 1 1 1 1 1
          1 1 1 1 1 1
          1 1 1 1 1 1
          1 1 1 1 1 1
          1 1 1 1 1 1
          1 1 1 1 1 1
          1 1 1 1 1 1
          1 1 1 1 1 1
          1 1 1 1 1 1
          1 1 1 1 1 1
          1 1 1 1 1 1
          1 1 1 1 1 1
          1 1 1 1 1 1
          1 1 1 1 1 1
          1 1 1 1 1 1
          1 1 1 1 1 1
          1 1 1 1 1 1
          1 1 1 1 1 1
          1 1 1 1 1 1
          1 1 1 1 1 1
          1 1 1 1 1 1
          1 1 1 1 1 1
          1 1 1 1 1 1
          1 1 1 1 1 1
          1 1 1 1 1 1
          1 1 1 1 1 1
          1 1 1 1 1 1
          1 1 1 1 1 1
          1 1 1 1 1 1
          1 1 1 1 1 1
          1 1 1 1 1 1
          1 1 1 1 1 1
          1 1 1 1 1 1
          1 1 1 1 1 1
          1 1 1 1 1 1
          1 1 1 1 1 1
          1 1 1 1 1 1
          1 1 1 1 1 1
          1 1 1 1 1 1
          1 1 1 1 1 1
          1 1 1 1 1 1
          1 1 1 1 1 1
          1 1 1 1 1 1
          1 1 1 1 1 1
          1 1 1 1 1 1
          1 1 1 1 1 1
          1 1 1 1 1 1
          1 1 1 1 1 1
          1 1 1 1 1 1
          1 1 1 1 1 1
          1 1 1 1 1 1
          1 1 1 1 1 1
          1 1 1 1 1
        </DataArray>
        <DataArray type="Float64" Name="diameter" format="ascii" RangeMin="1.0093795425e-06" RangeMax="1.3564641369e-06">
          1.2063059647e-06 1.2262074701e-06 1.2446021248e-06 1.0785479764e-06 1.2598289747e-06 1.14790278e-06
          1.0950187182e-06 1.1861614457e-06 1.2285079566e-06 1.3431561767e-06 1.2056164306e-06 1.1005335108e-06
          1.3426708289e-06 1.3026229699e-06 1.0093795425e-06 1.3380574772e-06 1.2566136294e-06 1.3410461789e-06
          1.2539985575e-06 1.3560264628e-06 1.3113912235e-06 1.2861624707e-06 1.2178125225e-06 1.2042908926e-06
          1.1623243692e-06 1.2403090337e-06 1.3309227302e-06 1.1119431002e-06 1.1992311178e-06 1.0843174678e-06
          1.2315867469e-06 1.1880900043e-06 1.2699821733e-06 1.1095260416e-06 1.1059945955e-06 1.3320972798e-06
          1.2474296929e-06 1.1220724165e-06 1.0894710873e-06 1.266237603e-06 1.2523417462e-06 1.3125705086e-06
          1.2449948106e-06 1.3376636146e-06 1.332713884e-06 1.2736120528e-06 1.1446737916e-06 1.2635092604e-06
          1.1653847508e-06 1.1721925661e-06 1.0722219559e-06 1.2731584421e-06 1.1504987965e-06 1.1884462924e-06
          1.1699311166e-06 1.1812790846e-06 1.1037128755e-06 1.2191723638e-06 1.0372019841e-06 1.2247159872e-06
          1.1327801305e-06 1.1121066333e-06 1.1041921469e-06 1.0827162529e-06 1.0681004441e-06 1.339969628e-06
          1.1569560663e-06 1.2608265861e-06 1.1128122912e-06 1.1401563211e-06 1.3328444182e-06 1.3230639597e-06
          1.2926722679e-06 1.3549451124e-06 1.3290325136e-06 1.041123279e-06 1.3547521472e-06 1.2927342632e-06
          1.0568536466e-06 1.119292434e-06 1.3017657964e-06 1.2253327646e-06 1.2903487129e-06 1.2593996846e-06
          1.3188261128e-06 1.191908991e-06 1.2443785084e-06 1.3298970564e-06 1.2620424574e-06 1.2829494201e-06
          1.2935618801e-06 1.2357757451e-06 1.2578778521e-06 1.2277962961e-06 1.297441691e-06 1.1657364721e-06
          1.2923058349e-06 1.1612567708e-06 1.1921877677e-06 1.1836644288e-06 1.1917585141e-06 1.2389218816e-06
          1.2819492736e-06 1.2527806655e-06 1.2223586074e-06 1.2742740492e-06 1.1099036201e-06 1.1397886091e-06
          1.2078498678e-06 1.1164546341e-06 1.2263546047e-06 1.0759038403e-06 1.1010140523e-06 1.1930792641e-06
          1.1783973002e-06 1.1425186867e-06 1.2209685291e-06 1.196915923e-06 1.1174136436e-06 1.1285431467e-06
          1.2168937578e-06 1.1885572833e-06 1.1467015738e-06 1.1611821041e-06 1.1194976593e-06 1.1551821739e-06
          1.094309176e-06 1.1694853142e-06 1.1431353678e-06 1.0614904025e-06 1.0987865513e-06 1.1511031171e-06
          1.1150021463e-06 1.1203396335e-06 1.0380457396e-06 1.1142999013e-06 1.1557446553e-06 1.1353062628e-06
          1.0456246103e-06 1.0692937434e-06 1.1638898524e-06 1.1072868761e-06 1.0389920627e-06 1.1035164554e-06
          1.3401644175e-06 1.1048113088e-06 1.0656941355e-06 1.2189775991e-06 1.2199359377e-06 1.3195548953e-06
          1.1231008517e-06 1.2630653589e-06 1.1699566641e-06 1.0299137836e-06 1.3309841781e-06 1.1994045525e-06
          1.2210225218e-06 1.2588927814e-06 1.1570362421e-06 1.1860910447e-06 1.1517336816e-06 1.1886126787e-06
          1.1604544497e-06 1.0862037274e-06 1.1639836593e-06 1.1348080442e-06 1.2457619348e-06 1.1479943906e-06
          1.3329253045e-06 1.1798817727e-06 1.2830335754e-06 1.3364516322e-06 1.3453460941e-06 1.2399958107e-06
          1.1897010608e-06 1.0772179003e-06 1.3525149677e-06 1.2892389613e-06 1.1501975518e-06 1.1503688648e-06
          1.3241949179e-06 1.2219726787e-06 1.2021546272e-06 1.2374128103e-06 1.1713132907e-06 1.2831485918e-06
          1.1114584987e-06 1.1846554755e-06 1.1922808785e-06 1.1723203407e-06 1.2237592589e-06 1.1957729402e-06
          1.130884783e-06 1.0971400985e-06 1.0614403063e-06 1.2260059046e-06 1.176161672e-06 1.1546112181e-06
          1.2623573121e-06 1.1538645889e-06 1.1911517581e-06 1.2216133418e-06 1.2664670809e-06 1.2821089391e-06
          1.2844518984e-06 1.2850181631e-06 1.1523863952e-06 1.2485998503e-06 1.1246513173e-06 1.1688050302e-06
          1.2134353238e-06 1.2592950192e-06 1.2192713974e-06 1.2991268864e-06 1.1119455391e-06 1.2359461475e-06
          1.1443002417e-06 1.1922622764e-06 1.0977509593e-06 1.1522366266e-06 1.2276477926e-06 1.0961157751e-06
          1.1370719641e-06 1.2797364362e-06 1.2975520191e-06 1.1166186557e-06 1.166464752e-06 1.1112421428e-06
          1.2980514046e-06 1.0484664751e-06 1.1924449133e-06 1.2527779794e-06 1.1118369285e-06 1.1651468398e-06
          1.1230682713e-06 1.1631584709e-06 1.114033714e-06 1.2907549222e-06 1.2015133284e-06 1.0946467198e-06
          1.1994122806e-06 1.3251252913e-06 1.1614424617e-06 1.0681933311e-06 1.3321502171e-06 1.1853834599e-06
          1.0366646064e-06 1.2018955392e-06 1.3205901263e-06 1.2071691392e-06 1.3177118808e-06 1.1838670804e-06
          1.0959298405e-06 1.3475871726e-06 1.0291960457e-06 1.2119423567e-06 1.2571718904e-06 1.2753665528e-06
          1.3504459515e-06 1.3002469144e-06 1.3399148957e-06 1.3270996248e-06 1.2965546549e-06 1.2848789861e-06
          1.3161009016e-06 1.3202300819e-06 1.0649690152e-06 1.3240429385e-06 1.3215131516e-06 1.2643988466e-06
          1.2302101659e-06 1.233181634e-06 1.2620260852e-06 1.1909236744e-06 1.1962326524e-06 1.24961554e-06
          1.201737885e-06 1.2852289532e-06 1.18141992e-06 1.224536846e-06 1.2938887581e-06 1.2591793158e-06
          1.1429862395e-06 1.2347651916e-06 1.2882728284e-06 1.2713406567e-06 1.1646529762e-06 1.263219651e-06
          1.1976472037e-06 1.1640597151e-06 1.1410253212e-06 1.1578458906e-06 1.204732181e-06 1.0963357967e-06
          1.141978511e-06 1.0725761997e-06 1.2044784709e-06 1.0990148781e-06 1.2227813532e-06 1.2521143347e-06
          1.1801517036e-06 1.0874239208e-06 1.1568436817e-06 1.088939277e-06 1.0808664333e-06 1.1496993031e-06
          1.2258422338e-06 1.1695794358e-06 1.2335211089e-06 1.1399784019e-06 1.2282248481e-06 1.2642687808e-06
          1.0772068833e-06 1.1733981755e-06 1.1869609909e-06 1.1306061903e-06 1.2033401191e-06 1.2324406195e-06
          1.155945285e-06 1.1807732101e-06 1.1856293044e-06 1.1675527409e-06 1.1336607922e-06 1.1800020241e-06
          1.17072122e-06 1.1616426715e-06 1.0979904215e-06 1.0939092958e-06 1.1122146549e-06 1.0986903037e-06
          1.0717324299e-06 1.1468034802e-06 1.064434728e-06 1.103562789e-06 1.1682367946e-06 1.1251882987e-06
          1.042256585e-06 1.0923173468e-06 1.1058333305e-06 1.154444686e-06 1.0285819634e-06 1.0761149882e-06
          1.1255131998e-06 1.1485621527e-06 1.0633799803e-06 1.1732526608e-06 1.116524978e-06 1.0301402471e-06
          1.0968654466e-06 1.0741566309e-06 1.0668244675e-06 1.1045639398e-06 1.0633365925e-06 1.1410273251e-06
          1.0595911469e-06 1.1455070178e-06 1.171670972e-06 1.0983432146e-06 1.2966182943e-06 1.1726520457e-06
          1.1187749437e-06 1.34135976e-06 1.326312578e-06 1.1270679006e-06 1.3000959949e-06 1.3564641369e-06
          1.2474060189e-06 1.1425317157e-06 1.2743519817e-06 1.1000668028e-06 1.3551861085e-06 1.2534825953e-06
          1.1851222509e-06 1.1330487132e-06 1.3020879507e-06 1.2768054104e-06 1.1511062196e-06 1.1866572164e-06
          1.143860933e-06 1.2136601289e-06 1.1856063615e-06 1.3012745833e-06 1.0504385385e-06 1.2808080218e-06
          1.2047090323e-06 1.2895796667e-06 1.1685003985e-06 1.2163777015e-06 1.1016407907e-06 1.3529366665e-06
          1.243913751e-06 1.200577763e-06 1.2680957615e-06 1.2522862698e-06 1.1870551975e-06 1.1693795646e-06
          1.1330155793e-06 1.2587822189e-06 1.1958314707e-06 1.1272683711e-06 1.1641626844e-06 1.2304548404e-06
          1.1739653867e-06 1.3398401754e-06 1.3365525053e-06 1.0415913882e-06 1.3236382554e-06 1.290861158e-06
          1.1551191903e-06 1.1765702357e-06 1.323830775e-06 1.3190071476e-06 1.3485912019e-06 1.2107480196e-06
          1.2826806249e-06 1.2607492643e-06 1.3186652723e-06 1.225368049e-06 1.1848869026e-06 1.1941588719e-06
          1.2459035448e-06 1.2104402705e-06 1.2375619768e-06 1.2503499155e-06 1.1416796156e-06 1.2338842823e-06
          1.2893424705e-06 1.2345783742e-06 1.2112641449e-06 1.1936486979e-06 1.197234033e-06 1.1843241307e-06
          1.3042724452e-06 1.2109119987e-06 1.0996608553e-06 1.1626648597e-06 1.204855265e-06 1.2007075669e-06
          1.1162477564e-06 1.1912930717e-06 1.1200102738e-06 1.1480030037e-06 1.1273034942e-06 1.1717227321e-06
          1.1839412168e-06 1.1731803555e-06 1.2355837426e-06 1.1377796253e-06 1.0594269327e-06 1.0951638507e-06
          1.0153714758e-06 1.1349887368e-06 1.0577074965e-06 1.1347988366e-06 1.0918854645e-06 1.0688891913e-06
          1.3054899212e-06 1.2127255681e-06 1.1770481991e-06 1.2022008186e-06 1.1039130893e-06 1.2909380186e-06
          1.055515573e-06 1.2531495444e-06 1.305769845e-06 1.293455974e-06 1.2318804184e-06 1.1182551421e-06
          1.2620147222e-06 1.2175343529e-06 1.3497698572e-06 1.1952039536e-06 1.2257620232e-06 1.2268826286e-06
          1.1481843151e-06 1.1512900821e-06 1.1461676451e-06 1.2093412517e-06 1.1420052384e-06 1.181622485e-06
          1.2666107449e-06 1.1551430778e-06 1.0903147201e-06 1.2372564664e-06 1.3224283141e-06 1.0773577484e-06
          1.236047234e-06 1.2414073635e-06 1.2505887607e-06 1.2007496203e-06 1.2401819726e-06 1.2203208724e-06
          1.2364533585e-06 1.2718652531e-06 1.2021124367e-06 1.19347431e-06 1.1853411783e-06 1.2316275157e-06
          1.1881380543e-06 1.1027581347e-06 1.1462077888e-06 1.2055043011e-06 1.1298426982e-06 1.0355426387e-06
          1.13422035e-06 1.1802630637e-06 1.1168917214e-06 1.090203074e-06 1.1175445402e-06
        </DataArray>
      </PointData>
      <CellData>
      </CellData>
      <Points>
        <DataArray type="Float32" Name="Points" NumberOfComponents="3" format="ascii" RangeMin="8.3724266248e-05" RangeMax="0.00025635758435">
          5.2637667977e-05 4.8517849791e-05 5.0709462812e-05 2.860299719e-05 6.4072934038e-05 5.186652561e-05
          4.1661020077e-05 7.4679599493e-05 5.2144408983e-05 5.2343941206e-05 4.5886685257e-05 4.7992158215e-05
          3.0073117159e-05 6.4887979534e-05 4.9175978347e-05 4.2910203774e-05 7.4997260526e-05 5.0186656154e-05
          2.8612119422e-05 6.2968021666e-05 5.1877497754e-05 5.3540934459e-05 4.4526688725e-05 4.9756541557e-05
          4.0228165744e-05 7.4460360338e-05 4.9675581977e-05 5.1669514505e-05 4.7095585614e-05 4.8313224397e-05
          4.0212307795e-05 7.5480893429e-05 5.0114078476e-05 3.0429127946e-05 6.0991173086e-05 4.8619931476e-05
          3.0197208616e-05 6.3193554524e-05 4.8378980864e-05 5.3224699514e-05 4.5684744691e-05 4.8595364206e-05
          4.3537093006e-05 7.571617607e-05 4.8025984142e-05 2.9557877497e-05 6.3729567046e-05 5.2327410231e-05
          5.2846829931e-05 4.6608631237e-05 5.2347106248e-05 4.2160922021e-05 7.4098999903e-05 4.8938130931e-05
          5.3807700169e-05 4.6967572416e-05 5.1766193792e-05 3.136648229e-05 6.2633713242e-05 4.865941446e-05
          4.2580875743e-05 7.3037015682e-05 5.1155417168e-05 4.2326348193e-05 7.512132288e-05 4.954223914e-05
          5.21696129e-05 4.7606437874e-05 5.1702394558e-05 2.8888447559e-05 6.4377680246e-05 4.8192236136e-05
          3.0985906051e-05 6.4041567384e-05 4.9552203564e-05 4.1621886339e-05 7.5555682997e-05 5.0348226068e-05
          2.8925178412e-05 6.1453814851e-05 5.1245158829e-05 5.4434302001e-05 4.5490047341e-05 5.0932882004e-05
          5.2080933528e-05 4.5141030569e-05 4.7744953918e-05 4.2784042307e-05 7.4605108239e-05 4.8484431318e-05
          5.492501441e-05 4.7279376304e-05 5.0014423323e-05 4.1162289563e-05 7.642385026e-05 4.922638982e-05
          3.0605104257e-05 6.2201957917e-05 5.1822964451e-05 5.2017006965e-05 4.616690785e-05 4.9691079766e-05
          5.1547427574e-05 4.6696095524e-05 4.9572274293e-05 3.1078208849e-05 6.1475031544e-05 4.9249723816e-05
          2.9235459806e-05 6.2186787545e-05 4.8605154007e-05 4.0645743866e-05 7.3007809988e-05 4.933612945e-05
          3.0170655009e-05 6.1482045567e-05 5.1161896408e-05 4.1911684093e-05 7.4415678682e-05 5.0328308134e-05
          5.2917126595e-05 4.8075391533e-05 4.9099835451e-05 4.1354109271e-05 7.3498369602e-05 5.0764792832e-05
          3.0123408578e-05 6.4949876105e-05 5.0301448937e-05 5.2574083384e-05 4.4468954002e-05 5.0281458243e-05
          4.1050217988e-05 7.4985611718e-05 5.0749804359e-05 5.4205607739e-05 4.7583223932e-05 4.9292862968e-05
          4.344449917e-05 7.4068237154e-05 5.1150505897e-05 2.8887241569e-05 6.2494036683e-05 4.9737667723e-05
          2.8877648219e-05 6.353596109e-05 4.9654856412e-05 4.1332652472e-05 7.4737567047e-05 4.7680779971e-05
          5.3310701333e-05 4.5871969633e-05 5.0275299145e-05 5.0901369832e-05 4.7230758355e-05 5.0507616834e-05
          2.8327103792e-05 6.4834493969e-05 4.9479458539e-05 2.9916778658e-05 6.3145693275e-05 5.0490547437e-05
          4.1244016757e-05 7.6160984463e-05 5.1028080634e-05 4.1583407437e-05 7.6459371485e-05 4.8124387831e-05
          3.0461653296e-05 6.312122423e-05 5.2511368267e-05 4.2602790927e-05 7.6136740972e-05 4.9860620493e-05
          2.9044740586e-05 6.3004503318e-05 5.0676790124e-05 4.3732397899e-05 7.467805699e-05 5.0231556088e-05
          5.279513789e-05 4.68810249e-05 5.0607621233e-05 5.390782826e-05 4.6322533308e-05 5.0329625083e-05
          5.3164862038e-05 4.490900028e-05 4.9108897656e-05 4.2543411837e-05 7.307852502e-05 4.8248854e-05
          5.4123960581e-05 4.5687000238e-05 4.9425816542e-05 5.3804145864e-05 4.6467219363e-05 4.7925987019e-05
          5.2986884839e-05 4.7229576012e-05 4.734930917e-05 3.0019591577e-05 6.2130915467e-05 4.9623442465e-05
          2.9627652111e-05 6.2571576564e-05 4.9208414566e-05 2.932424286e-05 6.4829393523e-05 5.0943981478e-05
          4.2305084207e-05 7.3481969594e-05 4.9979291362e-05 4.1782208427e-05 7.2581904533e-05 4.9407677579e-05
          5.2138049796e-05 4.5519900596e-05 5.0550537708e-05 5.2547893574e-05 4.6682780521e-05 4.890222408e-05
          3.0433848224e-05 6.2020524638e-05 4.8104237067e-05 2.8826192647e-05 6.2714680098e-05 4.8183934268e-05
          4.1798117309e-05 7.251722127e-05 5.0723516324e-05 3.0826475268e-05 6.1539620219e-05 5.0407936214e-05
          4.0756327508e-05 7.4405943451e-05 5.1665698265e-05 5.3728042985e-05 4.7131914471e-05 4.9729169405e-05
          2.9974844438e-05 6.4016225224e-05 5.0009890401e-05 5.312023859e-05 4.5807097194e-05 4.957998317e-05
          5.4007548897e-05 4.7348490625e-05 5.0595484936e-05 3.1335028325e-05 6.2495615566e-05 4.9827121984e-05
          4.1689978389e-05 7.4938703619e-05 4.8746933317e-05 2.9077211366e-05 6.1328333686e-05 5.0042122894e-05
          3.0856037483e-05 6.2682636781e-05 5.0915692555e-05 4.2467279854e-05 7.4732692156e-05 5.128043631e-05
          5.2645886171e-05 4.7501333029e-05 5.0033315347e-05 2.9766324587e-05 6.3861130911e-05 5.1133993111e-05
          5.2863997553e-05 4.5004064305e-05 5.1718656323e-05 4.0612638259e-05 7.5225347246e-05 5.1814549806e-05
          2.8247741284e-05 6.2295148382e-05 5.0688671763e-05 2.8259653845e-05 6.3810191932e-05 4.8825244448e-05
          5.1783634262e-05 4.7851332056e-05 5.0704198657e-05 4.1981926188e-05 7.3737421189e-05 5.1662653277e-05
          5.3734445828e-05 4.4409189286e-05 5.0970949815e-05 4.070002251e-05 7.4254559877e-05 4.8662608606e-05
          4.1096558562e-05 7.4742405559e-05 4.9616464821e-05 5.287240856e-05 4.595541759e-05 5.1377755881e-05
          5.1607785281e-05 4.677015022e-05 5.1282731874e-05 3.1723251595e-05 6.3424398832e-05 5.0472328439e-05
          5.1239298045e-05 4.5870507165e-05 4.85537239e-05 4.3197691411e-05 7.3438852269e-05 5.0206272135e-05
          5.1560044085e-05 4.7674508096e-05 4.9541238695e-05 4.2309264245e-05 7.5874420872e-05 4.840092879e-05
          2.7844043871e-05 6.3869854785e-05 5.1004477427e-05 4.3535546865e-05 7.5288597145e-05 5.1210063248e-05
          3.0084132959e-05 6.4444429881e-05 4.8376979976e-05 4.2525505705e-05 7.5805466622e-05 5.0786202337e-05
          5.4142496083e-05 4.5642369514e-05 5.2094230341e-05 5.459480235e-05 4.6308174205e-05 4.963070387e-05
          4.1428236727e-05 7.5567040767e-05 4.9504036724e-05 2.8848602597e-05 6.3761763158e-05 5.0751357776e-05
          4.1383256757e-05 7.3458279076e-05 4.8199424782e-05 3.0758317735e-05 6.3235282141e-05 4.9860969739e-05
          4.0073293349e-05 7.6080279541e-05 5.0884016673e-05 2.9593451472e-05 6.2345861807e-05 5.2265164413e-05
          4.3159507186e-05 7.5895426562e-05 4.8968409828e-05 4.3087133236e-05 7.4444105849e-05 4.9309910537e-05
          4.2027360905e-05 7.3959003203e-05 4.7630994231e-05 2.991387737e-05 6.4877371187e-05 5.1969615015e-05
          5.2881277952e-05 4.5735599997e-05 4.7037297918e-05 2.9578803151e-05 6.2842664192e-05 5.1450297178e-05
          2.9480719604e-05 6.1288839788e-05 4.9030499213e-05 4.261426875e-05 7.5136355008e-05 4.7807283408e-05
          4.3651754822e-05 7.4129995483e-05 4.8237918236e-05 5.189832882e-05 4.5299311751e-05 4.908622941e-05
          5.218921433e-05 4.6507651859e-05 5.0606748118e-05 4.1417843022e-05 7.367690705e-05 4.9564820074e-05
          2.9447017369e-05 6.1996630393e-05 5.0449951232e-05 5.32260201e-05 4.5156833949e-05 5.0668928452e-05
          2.8137214031e-05 6.3854662585e-05 4.9991045671e-05 2.9898183129e-05 6.2449202233e-05 5.0863262004e-05
          5.3061066865e-05 4.7220630222e-05 5.1371665904e-05 5.3950221627e-05 4.6187255066e-05 5.124440213e-05
          5.2074701671e-05 4.4544725824e-05 4.930731302e-05 5.4400192312e-05 4.4944183173e-05 5.0196442317e-05
          5.2808740293e-05 4.7354482376e-05 4.841739792e-05 2.9715178243e-05 6.3605948526e-05 4.9235637562e-05
          2.8078777177e-05 6.3587176555e-05 4.7896581236e-05 4.0529976104e-05 7.3969938967e-05 5.0724382163e-05
          5.2986742958e-05 4.6606597607e-05 4.9749007303e-05 7.4365110777e-05 3.0370976674e-05 4.9500817113e-05
          0.00010633689817 5.1261478802e-05 4.8299669288e-05 0.00013789556397 6.0904672864e-05 5.0798793382e-05
          0.00010233888315 7.5081661635e-05 5.0634724175e-05 7.6857519161e-05 2.9270440791e-05 4.9043745094e-05
          0.00010999248479 5.1238152082e-05 5.1059545513e-05 0.00013704744924 6.1585022195e-05 5.128524208e-05
          9.931819659e-05 7.6715739851e-05 5.2064700867e-05 0.00010627173469 5.32517588e-05 5.0050311984e-05
          7.4638504884e-05 2.9061582609e-05 4.8687459639e-05 0.00013957456395 6.2523329689e-05 4.861423804e-05
          0.00010135789489 7.70266779e-05 4.8658777814e-05 0.00010157061479 7.5155126979e-05 5.1564184105e-05
          7.5437885243e-05 2.9131513656e-05 4.8008969316e-05 0.00013914340525 6.1768791056e-05 5.1639595767e-05
          0.00010690444469 5.1234816056e-05 4.9244939873e-05 0.00013846289949 6.1728947912e-05 5.0190636102e-05
          0.00010606680007 5.2525614592e-05 4.8500634875e-05 7.6886964962e-05 3.0037901524e-05 5.0885475503e-05
          0.00010792732064 5.1181017625e-05 5.1414939662e-05 7.6701471698e-05 2.7685691748e-05 5.1604525652e-05
          0.0001019291085 7.4922667409e-05 4.8083518777e-05 7.6218180766e-05 3.0499613786e-05 5.1255236031e-05
          0.00010073820158 7.5871634181e-05 4.9428974307e-05 0.00013818239677 6.3022125687e-05 4.8576788686e-05
          0.00010129753355 7.6947930211e-05 5.0889015256e-05 0.00010074203601 7.7267963206e-05 4.961880768e-05
          0.00013966116239 6.0538430262e-05 4.8581772717e-05 0.00010899044719 5.2993374993e-05 5.057861199e-05
          0.00013852991106 6.1377089878e-05 5.2570772823e-05 0.00010888111865 5.1968607295e-05 4.8011472245e-05
          0.00010718910198 5.0377031585e-05 4.8212761612e-05 7.6736701885e-05 2.9763545172e-05 5.0011731219e-05
          0.00010680111154 5.0153077609e-05 5.1357044867e-05 0.00013829724048 6.1750608438e-05 4.6771066991e-05
          7.4755305832e-05 2.8303817089e-05 5.1604049077e-05 0.00013975014735 6.1502170865e-05 4.8870777391e-05
          0.00010026578093 7.5424541137e-05 4.8558045819e-05 7.483176887e-05 2.7374298952e-05 5.090301056e-05
          9.9947385024e-05 7.498330524e-05 5.1970968343e-05 7.6839758549e-05 2.8867483707e-05 5.2097140724e-05
          0.00010877122259 5.1328934205e-05 5.1976639952e-05 7.6654323493e-05 2.7272266379e-05 4.918036575e-05
          0.00010007346282 7.4114883319e-05 5.0318027206e-05 0.00013729996863 6.2953564338e-05 4.9175192544e-05
          7.5000272773e-05 2.9874034226e-05 5.2394909289e-05 0.00010839879542 5.2091145335e-05 4.9840014981e-05
          0.00013901368948 6.2834806158e-05 5.1598563005e-05 9.9074080936e-05 7.6179341704e-05 5.0551294407e-05
          0.0001009939806 7.5818512414e-05 4.7554902267e-05 0.00010837800801 5.1396222261e-05 4.8029429308e-05
          0.00010787188512 5.2691051678e-05 5.0430266128e-05 7.525892579e-05 3.0370403692e-05 4.9519974709e-05
          0.00010047900287 7.4682277045e-05 4.9411290092e-05 9.8846350738e-05 7.6236137829e-05 4.8643869377e-05
          0.00013768707868 6.0862716055e-05 4.8186215281e-05 0.00013969659631 6.1050574004e-05 5.0232989452e-05
          0.0001399218454 6.2591680035e-05 4.932273805e-05 0.00014033804473 6.157522148e-05 5.0839305914e-05
          0.00010169037705 7.5741649198e-05 5.0021331845e-05 0.00010904427472 5.0655497034e-05 4.9884787586e-05
          7.6121010352e-05 2.9845665267e-05 4.7642188292e-05 0.00010696411482 5.0698457926e-05 5.0589762395e-05
          0.00010734935495 4.9697860959e-05 5.0033893785e-05 7.6471733337e-05 2.8482480047e-05 4.8866015277e-05
          7.4809417129e-05 2.8168633435e-05 4.9566628149e-05 0.00013872201089 6.2903454818e-05 4.9967795348e-05
          0.00010729560017 5.3164225392e-05 4.9276535719e-05 0.00010865789955 5.3241856222e-05 5.1737173635e-05
          0.00013703184959 6.2138140493e-05 4.8099984269e-05 7.5607902545e-05 2.8610120353e-05 4.9987575039e-05
          0.0001403415954 6.0733451392e-05 4.9569294788e-05 0.00010010122787 7.443811046e-05 5.1179697039e-05
          7.5971365732e-05 2.7633805075e-05 4.9987684179e-05 0.00013779372966 6.035633487e-05 4.9999332987e-05
          0.0001025884485 7.5587362517e-05 4.8608468205e-05 0.00013639398094 6.2489278207e-05 5.0609778555e-05
          0.00010682553693 5.1488026656e-05 5.1767561672e-05 7.6020689448e-05 2.7491219953e-05 4.7423716751e-05
          0.00010062342335 7.65831428e-05 5.1777198678e-05 7.6976168202e-05 2.8034777642e-05 5.0347804063e-05
          0.00010763545288 5.1098977565e-05 5.2478993894e-05 0.00010210856271 7.403014024e-05 5.0708844356e-05
          0.00010035360174 7.6645825175e-05 4.7536432248e-05 0.00010819372983 5.0498791097e-05 4.9328493333e-05
          7.5506926805e-05 2.6561761842e-05 4.9189260608e-05 7.6292788435e-05 2.8651120374e-05 5.1161390729e-05
          0.00010844439385 5.0153350458e-05 5.1232487749e-05 0.00010123713582 7.4452989793e-05 5.2131061238e-05
          0.00013788892829 6.3579667767e-05 5.0414353609e-05 0.00010802382894 5.1167789934e-05 5.0178889069e-05
          7.5988078606e-05 3.0321773011e-05 5.0210146583e-05 9.9997982034e-05 7.5741139881e-05 5.1226463256e-05
          0.00013873289572 6.1114413256e-05 5.0865019148e-05 0.00010990087321 5.1157181588e-05 4.9859379942e-05
          9.8757780506e-05 7.5287251093e-05 5.0957987696e-05 0.00013992127788 6.1711951275e-05 4.797393558e-05
          0.00010123473476 7.667778118e-05 4.9772999773e-05 0.00010761195881 5.135630272e-05 4.8728590627e-05
          7.6593772974e-05 2.7345800845e-05 5.0417649618e-05 7.58786191e-05 2.9535705835e-05 5.1196948334e-05
          0.00013758067507 6.192397268e-05 4.8817055358e-05 0.00010167397704 7.6430289482e-05 5.2346716984e-05
          0.00013836911239 6.1523373006e-05 4.8594480177e-05 0.0001379022724 6.0171081714e-05 5.2086306823e-05
          7.7082309872e-05 3.0296670957e-05 4.8997248086e-05 0.00010174233466 7.5102288974e-05 4.8945108574e-05
          7.4288407632e-05 2.972465154e-05 5.0947714044e-05 9.9748584034e-05 7.6812983025e-05 5.1251568948e-05
          0.00010262259457 7.6552372775e-05 4.8266971135e-05 9.9600547401e-05 7.566990098e-05 4.9215868785e-05
          0.00013666978339 6.1106395151e-05 4.8988975323e-05 7.4704112194e-05 2.9424558306e-05 4.9690377637e-05
          0.00010655599908 5.0135520723e-05 4.8844747653e-05 0.00010071558063 7.5895630289e-05 5.0555805501e-05
          0.0001092946477 5.2110790421e-05 5.1147733757e-05 0.00010781545279 5.0184760767e-05 5.0709280913e-05
          7.5508920418e-05 2.7818798117e-05 4.9129550462e-05 0.00013815509737 6.2171988247e-05 5.116536704e-05
          0.00010862240015 5.1053644711e-05 4.708020424e-05 0.00010778719297 5.2485152992e-05 4.9471400416e-05
          0.00013964658137 6.248641148e-05 5.0332837418e-05 0.00010185471183 7.5956413639e-05 5.0905655371e-05
          0.00011010889284 5.0784383347e-05 4.9010624934e-05 7.7334101661e-05 2.825390402e-05 4.8196554417e-05
          7.4539690104e-05 2.8795544495e-05 5.0606162404e-05 0.00013698881958 6.031383964e-05 5.0723250752e-05