<?xml version="1.0"?>
<VTKFile type="UnstructuredGrid" version="0.1" byte_order="LittleEndian" header_type="UInt32" compressor="vtkZLibDataCompressor">
  <UnstructuredGrid>
    <Piece NumberOfPoints="10" NumberOfCells="10">
      <PointData>
        <DataArray type="Int32" Name="id" format="ascii" RangeMin="1" RangeMax="10">
          8 6 5 9 4 3
          7 10 1 2
        </DataArray>
        <DataArray type="Int32" Name="type" format="ascii" RangeMin="1" RangeMax="1">
          1 1 1 1 1 1
          1 1 1 1
        </DataArray>
        <DataArray type="Float64" Name="diameter" format="ascii" RangeMin="1e-06" RangeMax="1e-06">
          1e-06 1e-06 1e-06 1e-06 1e-06 1e-06
          1e-06 1e-06 1e-06 1e-06
        </DataArray>
      </PointData>
      <CellData>
      </CellData>
      <Points>
        <DataArray type="Float32" Name="Points" NumberOfComponents="3" format="ascii" RangeMin="8.5757355596e-05" RangeMax="0.00025431910993">
          5.2812200011e-05 4.6466659114e-05 4.9999998737e-05 2.9684000765e-05 6.3033199694e-05 4.9999998737e-05
          4.195099973e-05 7.4509902333e-05 4.9999998737e-05 7.5790900155e-05 2.8879199817e-05 4.9999998737e-05
          0.00010799209849 5.1517181419e-05 4.9999998737e-05 0.0001385541982 6.1793201894e-05 4.9999998737e-05
          0.00010079640197 7.5569601904e-05 4.9999998737e-05 0.00022093940061 6.0702499468e-05 4.9999998737e-05
          0.0002183191973 7.8572600614e-05 4.9999998737e-05 0.00024793381453 2.6590099878e-05 4.9999998737e-05
        </DataArray>
      </Points>
      <Cells>
        <DataArray type="Int64" Name="connectivity" format="ascii" RangeMin="0" RangeMax="9">
          0 1 2 3 4 5
          6 7 8 9
        </DataArray>
        <DataArray type="Int64" Name="offsets" format="ascii" RangeMin="1" RangeMax="10">
          1 2 3 4 5 6
          7 8 9 10
        </DataArray>
        <DataArray type="UInt8" Name="types" format="ascii" RangeMin="1" RangeMax="1">
          1 1 1 1 1 1
          1 1 1 1
        </DataArray>
      </Cells>
    </Piece>
  </UnstructuredGrid>
</VTKFile>
