<?xml version="1.0"?>
<VTKFile type="UnstructuredGrid" version="0.1" byte_order="LittleEndian" header_type="UInt32" compressor="vtkZLibDataCompressor">
  <UnstructuredGrid>
    <Piece NumberOfPoints="370" NumberOfCells="370">
      <PointData>
        <DataArray type="Int32" Name="id" format="ascii" RangeMin="1" RangeMax="370">
          8 6 5 11 12 13
          21 22 23 32 33 34
          44 45 46 47 48 49
          57 58 67 68 78 79
          80 81 82 83 94 95
          96 97 98 99 113 114
          115 116 117 118 138 139
          140 141 142 143 144 145
          160 161 162 163 164 165
          166 167 168 189 190 191
          192 193 194 195 196 229
          230 231 232 233 234 235
          236 237 238 239 240 241
          242 243 274 275 276 277
          278 279 280 281 282 283
          284 285 286 287 313 314
          315 316 317 318 319 320
          321 322 323 324 9 4
          3 7 14 15 16 17
          24 25 26 30 31 35
          36 37 41 50 51 52
          53 54 59 60 61 62
          63 69 70 71 72 84
          85 86 87 88 89 100
          101 102 103 104 105 106
          107 119 120 121 122 123
          124 125 126 127 128 129
          130 146 147 148 149 150
          151 169 170 171 172 173
          174 175 176 177 178 179
          197 198 199 200 201 202
          203 204 205 206 207 208
          209 210 211 212 213 214
          215 216 244 245 246 247
          248 249 250 251 252 253
          254 255 256 257 258 259
          260 261 288 289 290 291
          292 293 294 295 296 297
          298 299 300 301 325 326
          327 328 329 330 331 332
          333 334 335 336 337 338
          339 340 341 342 343 344
          345 346 347 10 1 18
          19 27 28 38 39 42
          55 56 64 73 74 75
          76 77 90 108 109 110
          111 112 131 132 133 152
          153 154 155 156 157 180
          181 182 183 184 185 217
          218 219 220 221 222 223
          224 262 263 264 265 266
          267 268 302 303 304 305
          306 307 308 348 349 350
          351 352 353 354 355 356
          357 358 359 360 361 362
          363 2 20 29 40 43
          65 66 91 92 93 134
          135 136 137 158 159 186
          187 188 225 226 227 228
          269 270 271 272 273 309
          310 311 312 364 365 366
          367 368 369 370
        </DataArray>
        <DataArray type="Int32" Name="type" format="ascii" RangeMin="1" RangeMax="1">
          1 1 1 1 1 1
          1 1 1 1 1 1
          1 1 1 1 1 1
          1 1 1 1 1 1
          1 1 1 1 1 1
          1 1 1 1 1 1
          1 1 1 1 1 1
          1 1 1 1 1 1
          1 1 1 1 1 1
          1 1 1 1 1 1
          1 1 1 1 1 1
          1 1 1 1 1 1
          1 1 1 1 1 1
          1 1 1 1 1 1
          1 1 1 1 1 1
          1 1 1 1 1 1
          1 1 1 1 1 1
          1 1 1 1 1 1
          1 1 1 1 1 1
          1 1 1 1 1 1
          1 1 1 1 1 1
          1 1 1 1 1 1
          1 1 1 1 1 1
          1 1 1 1 1 1
          1 1 1 1 1 1
          1 1 1 1 1 1
          1 1 1 1 1 1
          1 1 1 1 1 1
          1 1 1 1 1 1
          1 1 1 1 1 1
          1 1 1 1 1 1
          1 1 1 1 1 1
          1 1 1 1 1 1
          1 1 1 1 1 1
          1 1 1 1 1 1
          1 1 1 1 1 1
          1 1 1 1 1 1
          1 1 1 1 1 1
          1 1 1 1 1 1
          1 1 1 1 1 1
          1 1 1 1 1 1
          1 1 1 1 1 1
          1 1 1 1 1 1
          1 1 1 1 1 1
          1 1 1 1 1 1
          1 1 1 1 1 1
          1 1 1 1 1 1
          1 1 1 1 1 1
          1 1 1 1 1 1
          1 1 1 1 1 1
          1 1 1 1 1 1
          1 1 1 1 1 1
          1 1 1 1 1 1
          1 1 1 1 1 1
          1 1 1 1 1 1
          1 1 1 1 1 1
          1 1 1 1 1 1
          1 1 1 1 1 1
          1 1 1 1 1 1
          1 1 1 1 1 1
          1 1 1 1 1 1
          1 1 1 1
        </DataArray>
        <DataArray type="Float64" Name="diameter" format="ascii" RangeMin="1.0046607598e-06" RangeMax="1.35957664e-06">
          1.073614004e-06 1.3358543826e-06 1.1074518957e-06 1.2513600323e-06 1.1260350396e-06 1.3145172753e-06
          1.2949616124e-06 1.077446043e-06 1.1205417291e-06 1.2009024675e-06 1.0996620026e-06 1.2732008044e-06
          1.2222565185e-06 1.1832335046e-06 1.2493685617e-06 1.1921670354e-06 1.1180547596e-06 1.2231896391e-06
          1.1390656715e-06 1.2344143835e-06 1.1961408806e-06 1.1731293322e-06 1.1061961996e-06 1.3581797208e-06
          1.0580840116e-06 1.3579191732e-06 1.2115620208e-06 1.3412226797e-06 1.0695135679e-06 1.251858787e-06
          1.3263817312e-06 1.3083758408e-06 1.156086776e-06 1.2845214112e-06 1.2873540229e-06 1.2126312336e-06
          1.1355568623e-06 1.2556338216e-06 1.2549096767e-06 1.1549555422e-06 1.1375607121e-06 1.1972165254e-06
          1.1127762649e-06 1.2150625647e-06 1.2155896199e-06 1.1568815287e-06 1.0440752482e-06 1.1501943712e-06
          1.3526806299e-06 1.3422469882e-06 1.2738364406e-06 1.138318195e-06 1.2759230254e-06 1.337243195e-06
          1.3577801248e-06 1.0516053535e-06 1.2934011778e-06 1.3451370179e-06 1.2391068238e-06 1.3544303982e-06
          1.244556971e-06 1.274001538e-06 1.2938596589e-06 1.3160627936e-06 1.2620111518e-06 1.1950287785e-06
          1.2514483771e-06 1.1477522863e-06 1.2518567278e-06 1.3117685654e-06 1.2157086822e-06 1.2067877698e-06
          1.1741948155e-06 1.2307601592e-06 1.2098413238e-06 1.268403241e-06 1.2356910718e-06 1.1767983976e-06
          1.2441837309e-06 1.236726554e-06 1.1850199588e-06 1.1130271881e-06 1.1720842216e-06 1.1464533531e-06
          1.2029223619e-06 1.0850154054e-06 1.1327793162e-06 1.2130203465e-06 1.1463723228e-06 1.1678910854e-06
          1.175002892e-06 1.1271707951e-06 1.1450680026e-06 1.117684241e-06 1.1600296044e-06 1.0632868555e-06
          1.1738619672e-06 1.0592008484e-06 1.0874135047e-06 1.0751778855e-06 1.0655393358e-06 1.1278120543e-06
          1.1461779893e-06 1.1426812546e-06 1.0928985723e-06 1.1622857131e-06 1.2521175966e-06 1.2062531945e-06
          1.0046607598e-06 1.2987610532e-06 1.0934754631e-06 1.3169167891e-06 1.1999379561e-06 1.2323473241e-06
          1.35957664e-06 1.0559452021e-06 1.2505287217e-06 1.1930922757e-06 1.2988349247e-06 1.1020347275e-06
          1.1447748301e-06 1.2617899123e-06 1.0785725316e-06 1.3292781059e-06 1.2947223666e-06 1.2843729299e-06
          1.2693547787e-06 1.0530180163e-06 1.2849923632e-06 1.1270001523e-06 1.2576135384e-06 1.1948322985e-06
          1.2850038031e-06 1.1667272742e-06 1.1918574036e-06 1.1975042245e-06 1.1159489319e-06 1.0708243604e-06
          1.2338580031e-06 1.2173696594e-06 1.1487327059e-06 1.3504688697e-06 1.3564791986e-06 1.1979559115e-06
          1.3506739956e-06 1.0875500448e-06 1.0998250449e-06 1.0541372837e-06 1.145338798e-06 1.2918135039e-06
          1.3039511742e-06 1.3306453991e-06 1.2530800778e-06 1.1128261425e-06 1.2849075831e-06 1.2585537202e-06
          1.2528655751e-06 1.2481020745e-06 1.3167929842e-06 1.3215991567e-06 1.3383332916e-06 1.147925303e-06
          1.2722713404e-06 1.3524694503e-06 1.0872837193e-06 1.1457314221e-06 1.1538491411e-06 1.1414415535e-06
          1.1566172359e-06 1.0372382316e-06 1.1200478996e-06 1.343640867e-06 1.3228041513e-06 1.086143713e-06
          1.1230485682e-06 1.1087451032e-06 1.1725278761e-06 1.337231013e-06 1.11812013e-06 1.3576972018e-06
          1.3034095205e-06 1.2957729839e-06 1.3403161419e-06 1.3379830063e-06 1.294088657e-06 1.3497886541e-06
          1.1479787596e-06 1.1544169693e-06 1.2955326482e-06 1.3222527199e-06 1.3038968503e-06 1.1582492402e-06
          1.2594456335e-06 1.3381269513e-06 1.3567587728e-06 1.314051655e-06 1.3243056158e-06 1.2733793383e-06
          1.2385980952e-06 1.2666008798e-06 1.1616301962e-06 1.3300254328e-06 1.2174687861e-06 1.2998568744e-06
          1.1927168002e-06 1.2552161713e-06 1.2357135105e-06 1.2113915189e-06 1.2735720929e-06 1.2503601277e-06
          1.2901761227e-06 1.184626281e-06 1.3240395137e-06 1.1893017758e-06 1.2707468371e-06 1.2663486725e-06
          1.2036147845e-06 1.2660391354e-06 1.0938394182e-06 1.1315534042e-06 1.1537824838e-06 1.2096546126e-06
          1.1703243078e-06 1.1956039679e-06 1.2067987599e-06 1.1531118582e-06 1.150092803e-06 1.1967970651e-06
          1.1943690539e-06 1.2267610296e-06 1.1877236025e-06 1.1927326154e-06 1.1497817735e-06 1.1035515598e-06
          1.1130089427e-06 1.1390425222e-06 1.082967086e-06 1.087794808e-06 1.1304863832e-06 1.0815182581e-06
          1.1566570348e-06 1.0526642013e-06 1.0896948829e-06 1.1511736621e-06 1.120464528e-06 1.0316030266e-06
          1.1113856161e-06 1.1595466902e-06 1.1379746694e-06 1.042478724e-06 1.1255490808e-06 1.0696939762e-06
          1.0442117533e-06 1.0153267148e-06 1.0331440791e-06 1.1719243778e-06 1.3052305826e-06 1.2994824972e-06
          1.2218098501e-06 1.2081037618e-06 1.3292218264e-06 1.1750676329e-06 1.2355680356e-06 1.1362298217e-06
          1.2555303984e-06 1.1357859376e-06 1.2596619454e-06 1.2248598095e-06 1.1417648176e-06 1.0711507485e-06
          1.3402683124e-06 1.1587961704e-06 1.1434978074e-06 1.2480175328e-06 1.3004850914e-06 1.3320265387e-06
          1.3261517965e-06 1.0571495896e-06 1.1852973012e-06 1.2311232524e-06 1.1395859333e-06 1.0973382429e-06
          1.1549383401e-06 1.0643567365e-06 1.0994004074e-06 1.2395785242e-06 1.2228266931e-06 1.1091395543e-06
          1.0935751767e-06 1.1550755722e-06 1.1215386401e-06 1.0812578222e-06 1.0411559537e-06 1.3013714085e-06
          1.3502763463e-06 1.3586783071e-06 1.3167429576e-06 1.3308518118e-06 1.0953342153e-06 1.3577462748e-06
          1.2204256998e-06 1.2174310463e-06 1.2511310891e-06 1.1963458681e-06 1.166720897e-06 1.2649229905e-06
          1.2974253125e-06 1.1862909543e-06 1.1777426475e-06 1.2188991256e-06 1.102839e-06 1.1683605463e-06
          1.1341725964e-06 1.1918511296e-06 1.1161560059e-06 1.0792827785e-06 1.0694801578e-06 1.1260867928e-06
          1.1025586793e-06 1.1083516685e-06 1.1148783804e-06 1.0273024929e-06 1.1239132221e-06 1.1744286488e-06
          1.1023561211e-06 1.1033091251e-06 1.0622904076e-06 1.07223425e-06 1.0787701642e-06 1.1629585712e-06
          1.0779374425e-06 1.2941545823e-06 1.1769066357e-06 1.3580988832e-06 1.2512628006e-06 1.0837909186e-06
          1.2676261551e-06 1.1637880123e-06 1.2736684597e-06 1.1297214865e-06 1.1737589067e-06 1.1626899455e-06
          1.096078037e-06 1.3055690299e-06 1.137713495e-06 1.0944438612e-06 1.1990778189e-06 1.0774832048e-06
          1.1018397291e-06 1.1060417116e-06 1.3531856617e-06 1.2847047076e-06 1.3222807049e-06 1.2987115869e-06
          1.2868952065e-06 1.3418218881e-06 1.1385587199e-06 1.2969496731e-06 1.2347676374e-06 1.1153937857e-06
          1.1887332351e-06 1.2469313069e-06 1.1127349302e-06 1.1191358432e-06 1.1274129254e-06 1.0680884778e-06
          1.1180311464e-06 1.1001262508e-06 1.0985819205e-06 1.1380352774e-06
        </DataArray>
      </PointData>
      <CellData>
      </CellData>
      <Points>
        <DataArray type="Float32" Name="Points" NumberOfComponents="3" format="ascii" RangeMin="8.3899482509e-05" RangeMax="0.00025583789542">
          5.264844367e-05 4.8488574976e-05 5.0644313887e-05 2.8367805498e-05 6.3853003667e-05 5.1291812269e-05
          4.1694398533e-05 7.4653282354e-05 5.2125124057e-05 5.2648709243e-05 4.5779848733e-05 4.760623051e-05
          3.004379505e-05 6.4664200181e-05 4.9150385166e-05 4.3223615648e-05 7.5170144555e-05 5.069060353e-05
          2.9260072552e-05 6.2949118728e-05 5.1612012612e-05 5.3528638091e-05 4.4649190386e-05 4.965723565e-05
          4.0486364014e-05 7.4568270065e-05 4.9635164032e-05 5.1739611081e-05 4.7000201448e-05 4.8379115469e-05
          4.0262322727e-05 7.5424861279e-05 5.0182123232e-05 3.0009658076e-05 6.1268256104e-05 4.883384463e-05
          3.0173039704e-05 6.3087849412e-05 4.8540234275e-05 5.3245727031e-05 4.5796896302e-05 4.8614820116e-05
          4.2944237066e-05 7.5406147516e-05 4.8248428357e-05 2.9457625715e-05 6.3801351644e-05 5.2339724789e-05
          5.2881023294e-05 4.6508350351e-05 5.2230483561e-05 4.2182990001e-05 7.4104893429e-05 4.9101414334e-05
          5.3809828387e-05 4.6983946959e-05 5.1643361076e-05 3.1146584661e-05 6.2471830461e-05 4.8748999689e-05
          4.2512445361e-05 7.3019706178e-05 5.0935970648e-05 4.2092218791e-05 7.4974661402e-05 4.9626207328e-05
          5.2222105296e-05 4.7478370107e-05 5.1647322834e-05 2.9421104045e-05 6.4387379098e-05 4.8470763431e-05
          3.1041770853e-05 6.3764055085e-05 4.9605554523e-05 4.2046915041e-05 7.5605574239e-05 5.0432703574e-05
          2.8938848118e-05 6.1471298977e-05 5.1262777561e-05 5.4228694353e-05 4.5576405682e-05 5.1361603255e-05
          5.2091636462e-05 4.5212182158e-05 4.7827052185e-05 4.3109757826e-05 7.4340168794e-05 4.8589681683e-05
          5.4671450926e-05 4.6663761168e-05 4.9663027312e-05 4.1397641326e-05 7.5953270425e-05 4.9489419325e-05
          3.0499862987e-05 6.2299899582e-05 5.1699993492e-05 5.1960625569e-05 4.5739834604e-05 4.9364360166e-05
          5.2127856179e-05 4.66123347e-05 5.0087866839e-05 3.0919716664e-05 6.1533981352e-05 4.9288679293e-05
          2.9148817703e-05 6.2375125708e-05 4.8719030019e-05 4.1126873839e-05 7.3396658991e-05 4.9359721743e-05
          2.9788639949e-05 6.184636004e-05 5.0705304602e-05 4.1902541852e-05 7.4421601312e-05 5.0267695769e-05
          5.2901355957e-05 4.796227222e-05 4.9061149184e-05 4.1502607928e-05 7.3590927059e-05 5.0754846598e-05
          2.9901962989e-05 6.4637359174e-05 5.0282764278e-05 5.2574447182e-05 4.4626936869e-05 5.0369591918e-05
          4.1115472413e-05 7.4951261922e-05 5.0757411373e-05 5.4087835451e-05 4.7578389058e-05 4.9733971537e-05
          4.3420906877e-05 7.4029900134e-05 5.1111637731e-05 2.8975460737e-05 6.2404025812e-05 4.9759149988e-05
          2.8901940823e-05 6.3550302002e-05 5.0212445785e-05 4.146518404e-05 7.4214607594e-05 4.8017958761e-05
          5.3280284192e-05 4.5604396291e-05 5.0271468353e-05 5.1048151363e-05 4.7081273806e-05 5.0554968766e-05
          2.831139318e-05 6.4328567532e-05 4.9798356486e-05 3.0298739148e-05 6.3155166572e-05 5.0249458582e-05
          4.0800157876e-05 7.598879165e-05 5.0680246204e-05 4.1620467528e-05 7.6438147516e-05 4.8226698709e-05
          3.0020082704e-05 6.273980398e-05 5.2411007346e-05 4.2852279876e-05 7.58174574e-05 4.9452472012e-05
          2.9443897802e-05 6.2798746512e-05 5.072175918e-05 4.3155901949e-05 7.4571406003e-05 4.9749171012e-05
          5.2862753364e-05 4.6969118557e-05 5.0908081903e-05 5.3846768424e-05 4.6236284106e-05 5.0725073379e-05
          5.2551498811e-05 4.4951008022e-05 4.9345620937e-05 4.2239680624e-05 7.3437309766e-05 4.8026555305e-05
          5.4220719903e-05 4.5573218813e-05 4.9920636229e-05 5.3682411817e-05 4.6446031774e-05 4.798525697e-05
          5.292962669e-05 4.7234574595e-05 4.8042576964e-05 2.9904609619e-05 6.2071041611e-05 4.9656591727e-05
          2.9619441193e-05 6.3133680669e-05 4.9366088206e-05 2.9755381547e-05 6.4709231083e-05 5.1455201174e-05
          4.2129744543e-05 7.3633229476e-05 4.9947982916e-05 4.1854782467e-05 7.2619412094e-05 4.9549846153e-05
          5.2200757636e-05 4.5683747885e-05 5.0591785111e-05 5.2540734032e-05 4.6720691898e-05 4.8965321184e-05
          3.0636234442e-05 6.2059174525e-05 4.8164853069e-05 2.8550490242e-05 6.3107596361e-05 4.8253717978e-05
          4.1626753955e-05 7.2709939559e-05 5.06881006e-05 3.0709310522e-05 6.1668346461e-05 5.0305472541e-05
          4.0692477342e-05 7.4157236668e-05 5.1202932809e-05 5.3326759371e-05 4.673787771e-05 4.979478399e-05
          2.9987981179e-05 6.392737123e-05 4.993008406e-05 5.3094467148e-05 4.6025699703e-05 4.9547823437e-05
          5.403585601e-05 4.7163681302e-05 5.0586164434e-05 3.1166928238e-05 6.2531522417e-05 4.9840095016e-05
          4.1789066017e-05 7.4956202297e-05 4.8764315579e-05 2.9019134672e-05 6.141699123e-05 5.0058439228e-05
          3.0589657399e-05 6.2675717345e-05 5.0881742936e-05 4.237572648e-05 7.4658099038e-05 5.1160193834e-05
          5.2702624089e-05 4.7460893256e-05 5.0027723773e-05 2.9534599889e-05 6.3857049099e-05 5.1153328968e-05
          5.2960342146e-05 4.5174419938e-05 5.151170626e-05 4.0643524699e-05 7.5194591773e-05 5.1749659178e-05
          2.8389156796e-05 6.2297964178e-05 5.0531529268e-05 2.8378739444e-05 6.3960469561e-05 4.8813370086e-05
          5.1890387113e-05 4.7686567996e-05 5.0670412747e-05 4.1970881284e-05 7.380459283e-05 5.1536102546e-05
          5.3602456319e-05 4.4536624046e-05 5.0761263992e-05 4.0797400288e-05 7.4158087955e-05 4.8707330279e-05
          4.1185041482e-05 7.4815157859e-05 4.9568010581e-05 5.2926970966e-05 4.5927859901e-05 5.1360253565e-05
          5.1570321375e-05 4.6784785809e-05 5.1128965424e-05 3.1725048757e-05 6.3354484155e-05 5.0442075008e-05
          5.1431026804e-05 4.5837488869e-05 4.8599838919e-05 4.3068906962e-05 7.3555114795e-05 5.0194023061e-05
          5.159417924e-05 4.7527635616e-05 4.9650065193e-05 4.2322444642e-05 7.5702286267e-05 4.8453934141e-05
          7.4798670539e-05 3.0449578844e-05 5.0179638492e-05 0.00010634505452 5.127696204e-05 4.8394667829e-05
          0.00013796398707 6.092316471e-05 5.0812472182e-05 0.00010261384159 7.5158968684e-05 5.0252776418e-05
          7.6910146163e-05 2.9214219467e-05 4.9242938985e-05 0.00010982322419 5.1358940254e-05 5.1433980843e-05
          0.00013730202045 6.1609331169e-05 5.1246675866e-05 9.9668184703e-05 7.62940399e-05 5.1880597312e-05
          0.00010659215332 5.2555751608e-05 5.0410133554e-05 7.4725438026e-05 2.8978431146e-05 4.8668425734e-05
          0.00013912872237 6.2305334723e-05 4.8369871365e-05 0.00010135054617 7.683163858e-05 4.8763045925e-05
          0.00010122093227 7.5056923379e-05 5.1017283113e-05 7.5341638876e-05 2.9141934647e-05 4.8216828873e-05
          0.00013914829469 6.1630031269e-05 5.1487073506e-05 0.00010713440861 5.1771334256e-05 4.9315527576e-05
          0.00013853829296 6.1693608586e-05 5.0177983212e-05 0.00010641771951 5.255677388e-05 4.903131412e-05
          7.711690705e-05 2.9710383387e-05 5.0430018746e-05 0.00010814754205 5.1861083193e-05 5.1481943956e-05
          7.6211625128e-05 2.7962882086e-05 5.1669620007e-05 0.00010175484931 7.4929906987e-05 4.8370424338e-05
          7.5759875472e-05 3.0250968848e-05 5.1475541113e-05 0.00010083468078 7.5806121458e-05 4.9502599722e-05
          0.00013850872347 6.2613195041e-05 4.9216851039e-05 0.00010115361511 7.6740172517e-05 5.0717859267e-05
          0.00010037465836 7.6794472989e-05 4.9264082918e-05 0.00013939816563 6.0687852965e-05 4.8547957704e-05
          0.00010896867752 5.2779429097e-05 5.0680486311e-05 0.00013854235294 6.1377046222e-05 5.2562940255e-05
          0.00010884933727 5.1949493354e-05 4.8103123845e-05 0.00010728931375 5.0507005653e-05 4.8346460972e-05
          7.6291384175e-05 2.9675267797e-05 4.9829657655e-05 0.00010687392933 5.0342736358e-05 5.1335267926e-05
          0.00013833655976 6.1794809881e-05 4.6784916776e-05 7.5237156125e-05 2.8351085348e-05 5.1107741456e-05
          0.00014015415218 6.1672901211e-05 4.8747264373e-05 0.00010041346832 7.5285512139e-05 4.8838999646e-05
          7.4909032264e-05 2.7452531867e-05 5.0252623623e-05 0.00010015232692 7.5110401667e-05 5.17967419e-05
          7.6803909906e-05 2.8895594369e-05 5.2109688113e-05 0.00010872861458 5.130237696e-05 5.1941147831e-05
          7.6549498772e-05 2.7522240998e-05 4.9155805755e-05 0.00010060657223 7.4199982919e-05 5.0194936193e-05
          0.00013783582835 6.3242128817e-05 4.9002006563e-05 7.5109048339e-05 2.9466948035e-05 5.1892679039e-05
          0.00010852818377 5.1786762924e-05 4.944768807e-05 0.00013893228606 6.2747058109e-05 5.140498979e-05
          9.9493568996e-05 7.6186333899e-05 5.0123013352e-05 0.00010104323883 7.5896525232e-05 4.813380292e-05
          0.00010794332047 5.1189606893e-05 4.8071175115e-05 0.00010776815179 5.2763327403e-05 5.0497958e-05
          7.5421899965e-05 3.0030550988e-05 4.91156934e-05 0.00010022013885 7.4975127063e-05 4.9716858484e-05
          9.869740461e-05 7.6019132393e-05 4.9149384722e-05 0.00013779755682 6.0901969846e-05 4.8266509111e-05
          0.00013917429897 6.1236481997e-05 5.0571965403e-05 0.00013934771414 6.2226041337e-05 4.9453348765e-05
          0.00014022279356 6.1561142502e-05 5.073837383e-05 0.00010161031969 7.5656374975e-05 5.0083530368e-05
          0.00010902583017 5.0757425925e-05 4.980338781e-05 7.6144897321e-05 2.9877475754e-05 4.7667854233e-05
          0.00010702966392 5.0694874517e-05 5.0304948672e-05 0.00010741810547 4.970894588e-05 5.0047805416e-05
          7.6353120676e-05 2.8518577892e-05 4.8839639931e-05 7.4579038483e-05 2.8307531466e-05 4.9453759857e-05
          0.00013882206986 6.3036539359e-05 5.026720828e-05 0.00010749156354 5.2993149438e-05 4.9244950787e-05
          0.00010861371265 5.3258532716e-05 5.1680344768e-05 0.00013727374608 6.2039034674e-05 4.8250160035e-05
          7.5586343883e-05 2.8641426979e-05 5.002000762e-05 0.00013965688413 6.0982172727e-05 4.9705071433e-05
          0.00010012814164 7.4521507486e-05 5.1353283197e-05 7.613364869e-05 2.7474137823e-05 5.0346607168e-05
          0.00013830946409 6.0777099861e-05 4.9879887229e-05 0.00010251051572 7.5526055298e-05 4.9096979637e-05
          0.00013683518046 6.2178944063e-05 5.038784002e-05 0.00010700245184 5.1980805438e-05 5.137370681e-05
          7.6046017057e-05 2.7727823181e-05 4.8039197281e-05 0.00010065441165 7.5874144386e-05 5.1766346587e-05
          7.6716452895e-05 2.8047854357e-05 5.0290545914e-05 0.00010747824854 5.1286835514e-05 5.2282139222e-05
          0.00010179560195 7.4322808359e-05 5.0193328207e-05 0.00010029562691 7.6890253695e-05 4.8054927902e-05
          0.0001079456124 5.0648966862e-05 4.9602676881e-05 7.5358548202e-05 2.659681013e-05 4.9203456001e-05
          7.6597971201e-05 2.8835895137e-05 5.1038859965e-05 0.0001087962155 5.0674876547e-05 5.1010767493e-05
          0.00010120972001 7.432854909e-05 5.1490369515e-05 0.00013773918909 6.2904357037e-05 5.022741243e-05
          0.0001081542141 5.1507075113e-05 5.0487458793e-05 7.5737123552e-05 3.0529270589e-05 5.0240290875e-05
          9.9896642496e-05 7.544329128e-05 5.0727147027e-05 0.00013864292123 6.1067155912e-05 5.1401577366e-05
          0.00010977721831 5.1126891776e-05 5.0022663345e-05 9.9056895124e-05 7.5490061135e-05 5.1544688176e-05
          0.00013947358821 6.1378355895e-05 4.7863592044e-05 0.00010170770838 7.6712480222e-05 4.9765701988e-05
          0.0001074003012 5.1405106205e-05 4.8709320254e-05 7.6881638961e-05 2.7315072657e-05 5.0938124332e-05
          7.576909411e-05 2.9465671105e-05 5.0703725719e-05 0.00013766037591 6.197852781e-05 4.8852289183e-05
          0.00010159765952 7.6361895481e-05 5.1690047258e-05 0.00013859325554 6.1311002355e-05 4.8984591558e-05
          0.00013777594722 6.0797345213e-05 5.2016370319e-05 7.6784366684e-05 3.0122482713e-05 4.8962385335e-05
          0.00010141797247 7.5001182267e-05 4.9287922593e-05 7.430716505e-05 2.9620983696e-05 5.1025112043e-05
          0.00010013633437 7.6694384916e-05 5.0886515965e-05 0.00010207544256 7.6328768046e-05 4.8242629418e-05
          9.9736593256e-05 7.5894073234e-05 4.920054198e-05 0.00013724552991 6.0952024796e-05 4.936150799e-05
          7.4756768299e-05 2.9440559956e-05 4.9783702707e-05 0.00010666882008 5.0274898967e-05 4.8924568546e-05
          0.00010072367877 7.5887430285e-05 5.0510909205e-05 0.00010909351113 5.1874831115e-05 5.0990067393e-05
          0.00010776454292 5.0416343583e-05 5.0693808589e-05 7.5469200965e-05 2.7780546588e-05 4.9144669902e-05
          0.00013814271369 6.213717279e-05 5.1119972341e-05 0.00010844612552 5.1149912906e-05 4.7207919124e-05
          0.00010769853543 5.2486528148e-05 4.9598580517e-05 0.00013967888663 6.2418490415e-05 5.0280057621e-05
          0.00010182381811 7.5969066529e-05 5.0980917877e-05 0.00010957501217 5.0595797802e-05 4.8810892622e-05
          7.7198958024e-05 2.8290984119e-05 4.833359344e-05 7.4698808021e-05 2.8995167668e-05 5.0513684982e-05
          0.00013708829647 6.0376394686e-05 5.0714137615e-05 7.7770215285e-05 2.8815977203e-05 4.9134912842e-05
          7.4834744737e-05 2.8083179131e-05 4.8156765843e-05 7.5724143244e-05 2.9013521271e-05 4.9179867347e-05
          0.00013988847786 6.2185470597e-05 5.1642411563e-05 0.00013784160546 6.2066079408e-05 4.9679296353e-05
          0.000101728343 7.3931623774e-05 4.9063310144e-05 0.0001087509736 5.1009516028e-05 4.8723661166e-05
          0.00010821305477 4.9939269957e-05 4.867762982e-05 0.00013881649647 6.2355065893e-05 4.7652996727e-05
          0.00010030613339 7.4806310295e-05 5.2759827668e-05 7.5670563092e-05 2.8608719731e-05 5.2289586165e-05
          0.00010897267202 5.0466605899e-05 5.2447529015e-05 7.5922107499e-05 3.0030580092e-05 4.8653604608e-05
          0.00010698353435 5.1752529544e-05 5.0374870625e-05 0.00010656774248 5.0651306083e-05 4.9817335821e-05
          0.0001074652464 5.240399696e-05 4.8284106015e-05 0.00010782809113 5.2530824178e-05 5.1857889048e-05
          0.00013774434046 6.2314706156e-05 4.735147013e-05 9.9123026303e-05 7.475696475e-05 5.138609049e-05
          7.6580174209e-05 2.8874852433e-05 4.9969094107e-05 0.0001083739553 5.1646838983e-05 5.2828279877e-05
          7.5039308285e-05 2.736726492e-05 4.852217171e-05 0.00022031650587 6.0816695623e-05 4.9581194617e-05
          0.00021720802761 7.8553021012e-05 5.0404494687e-05 0.00022119288042 6.0235815909e-05 5.0650480262e-05
          0.0002187659411 7.8573080827e-05 5.1067778259e-05 0.00021667123656 7.9549150541e-05 5.1660619647e-05
          0.00022216721845 6.0788290284e-05 4.9748956371e-05 0.00022092631843 6.1261343944e-05 5.1167873607e-05
          0.00021835870575 7.6858246757e-05 4.9829377531e-05 0.0002185676567 7.8191376815e-05 4.9055412092e-05
          0.0002217515721 6.0300873884e-05 4.8725531087e-05 0.00021999278397 6.0014146584e-05 4.8682712077e-05
          0.00021734507754 7.7258620877e-05 5.0302282034e-05 0.0002206217323 6.1960046878e-05 4.9706439313e-05
          0.00021956887213 7.8183671576e-05 4.9171940191e-05 0.00022057094611 6.2352111854e-05 5.1646991778e-05
          0.00021730836306 7.8538869275e-05 4.9063037295e-05 0.00021808143356 8.0453268311e-05 4.948656715e-05
          0.00022173290199 5.9145993873e-05 5.0721067964e-05 0.00021805227152 7.8677476267e-05 5.1543345762e-05
          0.00022232841002 5.9983241954e-05 4.9136378948e-05 0.00021854796796 7.9956575064e-05 5.0265651225e-05
          0.0002201100142 6.044496331e-05 5.061887714e-05 0.0002211764513 6.1127415393e-05 4.7616216762e-05
          0.00021941271552 7.9434961663e-05 5.0976239436e-05 0.00021964413463 6.1162652855e-05 5.1327642723e-05
          0.0002180061565 7.8550547187e-05 4.7336667194e-05 0.00021950913651 7.7499280451e-05 4.9720263632e-05
          0.00022020787583 5.948638136e-05 5.0211107009e-05 0.00021834590007 7.7039345342e-05 5.1347557019e-05
          0.00022186202114 6.2185150455e-05 4.9325190048e-05 0.00021912369994 7.8731114627e-05 5.0036302127e-05
          0.00022171335877 6.1369057221e-05 5.1818093198e-05 0.00022006043582 6.1498627474e-05 4.7696452384e-05
          0.00021814864886 7.8005839896e-05 5.0424685469e-05 0.00021843909053 7.9957331764e-05 4.8090485507e-05
          0.00022096653993 5.9174039052e-05 5.1252001867e-05 0.00021747242135 7.9403398558e-05 5.1361610531e-05
          0.00022108055418 5.9945639805e-05 4.797379006e-05 0.00021674713935 7.8430821304e-05 5.1573417295e-05
          0.00022142389207 5.9727855842e-05 4.9651454901e-05 0.00021641995409 7.9343844845e-05 5.0486207329e-05
          0.00022217744845 6.0695063439e-05 5.1034516218e-05 0.00022070485284 6.0989234044e-05 4.8702506319e-05
          0.00021752808243 7.8922916146e-05 5.2188759582e-05 0.00022102298681 5.9445210354e-05 4.8506535677e-05
          0.00021908828057 7.9245066445e-05 4.8072415666e-05 0.00021822506096 7.8848344856e-05 4.9905069318e-05
          0.00021852079954 7.7098418842e-05 4.8667894589e-05 0.00022158067441 6.1435603129e-05 4.8939036787e-05
          0.00022041449847 6.0083093558e-05 5.1668259403e-05 0.00021960613958 6.1358026869e-05 5.0210175687e-05
          0.00021984303021 5.9317913838e-05 5.1083421567e-05 0.0002203991171 6.1180915509e-05 5.1983606681e-05
          0.00021922949236 6.1002148868e-05 4.9279289669e-05 0.00022125827672 6.1326827563e-05 5.0221286074e-05
          0.00021736661438 7.7724369476e-05 5.1343857194e-05 0.00021945709886 7.8103395936e-05 4.8199981393e-05
          0.00021998181182 7.8526478319e-05 5.018581578e-05 0.00022214408091 6.1902443122e-05 5.0406273658e-05
          0.0002193160326 7.9234523582e-05 4.911815995e-05 0.00021822267445 7.8848090197e-05 4.8403355322e-05
          0.0002202996402 5.9793608671e-05 4.9566337111e-05 0.00022017676383 6.1782375269e-05 5.0810464018e-05
          0.00021744547121 7.9640703916e-05 4.9681984819e-05 0.00022246806475 5.9762227465e-05 5.1343391533e-05
          0.0002221163013 6.1282407842e-05 4.7031287977e-05 0.00021737712086 7.9207413364e-05 4.8037964007e-05
          0.00021904014284 7.755162369e-05 5.082714415e-05 0.00021873343212 7.761818415e-05 5.0184957217e-05
          0.00021951274539 6.0926144215e-05 4.8394147598e-05 0.00021772499895 7.7858931036e-05 4.9402908189e-05
          0.00021879440465 8.0070029071e-05 4.9298960221e-05 0.00022098924092 5.9131623857e-05 5.0044531235e-05
          0.00021772518812 7.9651457781e-05 5.0521757657e-05 0.0002205396886 6.0560909333e-05 4.7337813157e-05
          0.00021800177637 7.843979256e-05 5.2996791055e-05 0.00024633944849 2.6653013265e-05 5.125118696e-05
          0.0002459702082 2.5425182685e-05 5.0086768169e-05 0.00024885020684 2.6953508495e-05 4.8134905228e-05
          0.00024860919802 2.7957006751e-05 4.8849717132e-05 0.00024785587448 2.6107732992e-05 5.0492340961e-05
          0.00024911289802 2.6124300348e-05 5.149221397e-05 0.00024707775447 2.712922651e-05 4.8859485105e-05
          0.00024747365387 2.5525909223e-05 4.9651669542e-05 0.000246059848 2.6673706088e-05 4.9649785069e-05