<?xml version="1.0"?>
<VTKFile type="UnstructuredGrid" version="0.1" byte_order="LittleEndian" header_type="UInt32" compressor="vtkZLibDataCompressor">
  <UnstructuredGrid>
    <Piece NumberOfPoints="2353" NumberOfCells="2353">
      <PointData>
        <DataArray type="Int32" Name="id" format="ascii" RangeMin="1" RangeMax="2353">
          8 6 5 11 12 13
          21 22 23 32 33 34
          44 45 46 47 48 49
          57 58 67 68 78 79
          80 81 82 83 94 95
          96 97 98 99 113 114
          115 116 117 118 138 139
          140 141 142 143 144 145
          160 161 162 163 164 165
          166 167 168 189 190 191
          192 193 194 195 196 229
          230 231 232 233 234 235
          236 237 238 239 240 241
          242 243 274 275 276 277
          278 279 280 281 282 283
          284 285 286 287 313 314
          315 316 317 318 319 320
          321 322 323 324 371 372
          373 374 375 376 377 378
          379 380 381 382 383 384
          385 386 447 448 449 450
          451 452 453 454 455 456
          457 458 459 460 461 462
          463 464 465 466 467 510
          511 512 513 514 515 516
          517 518 519 520 521 522
          523 524 525 526 527 528
          529 530 531 580 581 582
          583 584 585 586 587 588
          589 590 591 592 593 594
          595 596 597 598 599 600
          601 602 603 604 605 606
          607 608 609 610 679 680
          681 682 683 684 685 686
          687 688 689 690 691 692
          693 694 695 696 697 698
          699 700 701 702 703 704
          705 791 792 793 794 795
          796 797 798 799 800 801
          802 803 804 805 806 807
          808 809 810 895 896 897
          898 899 900 901 902 903
          904 905 906 907 908 909
          910 911 912 913 914 915
          916 1001 1002 1003 1004 1005
          1006 1007 1008 1009 1010 1011
          1012 1013 1014 1015 1016 1017
          1018 1019 1020 1021 1022 1023
          1024 1025 1026 1027 1028 1029
          1030 1031 1032 1033 1034 1035
          1036 1037 1038 1039 1040 1041
          1042 1043 1044 1045 1046 1047
          1048 1049 1143 1144 1145 1146
          1147 1148 1149 1150 1151 1152
          1153 1154 1155 1156 1157 1158
          1159 1160 1161 1162 1163 1164
          1165 1166 1167 1168 1169 1170
          1171 1172 1173 1174 1175 1176
          1177 1178 1179 1180 1181 1182
          1183 1289 1290 1291 1292 1293
          1294 1295 1296 1297 1298 1299
          1300 1301 1302 1303 1304 1305
          1306 1307 1308 1309 1310 1311
          1312 1313 1314 1315 1316 1317
          1318 1319 1320 1321 1322 1323
          1324 1325 1326 1327 1328 1329
          1330 1331 1332 1333 1334 1335
          1457 1458 1459 1460 1461 1462
          1463 1464 1465 1466 1467 1468
          1469 1470 1471 1472 1473 1474
          1475 1476 1477 1478 1479 1480
          1481 1482 1483 1484 1485 1486
          1487 1488 1489 1490 1611 1612
          1613 1614 1615 1616 1617 1618
          1619 1620 1621 1622 1623 1624
          1625 1626 1627 1628 1629 1630
          1631 1632 1633 1634 1635 1636
          1637 1638 1639 1640 1641 1642
          1643 1644 1645 1646 1647 1648
          1649 1650 1651 1652 1653 1654
          1655 1656 1657 1658 1659 1782
          1783 1784 1785 1786 1787 1788
          1789 1790 1791 1792 1793 1794
          1795 1796 1797 1798 1799 1800
          1801 1802 1803 1804 1805 1806
          1807 1808 1809 1810 1811 1812
          1813 1814 1815 1816 1817 1818
          1819 1820 1821 1822 1823 1824
          1825 1826 1827 1828 1829 1830
          1831 1954 1955 1956 1957 1958
          1959 1960 1961 1962 1963 1964
          1965 1966 1967 1968 1969 1970
          1971 1972 1973 1974 1975 1976
          1977 1978 1979 1980 1981 1982
          1983 1984 1985 1986 1987 1988
          1989 1990 1991 1992 1993 1994
          1995 1996 1997 1998 1999 2000
          2001 2002 2003 2004 2005 2164
          2165 2166 2167 2168 2169 2170
          2171 2172 2173 2174 2175 2176
          2177 2178 2179 2180 2181 2182
          2183 2184 2185 2186 2187 2188
          2189 2190 2191 2192 2193 2194
          2195 2196 2197 2198 2199 2200
          2201 2202 2203 2204 2205 2206
          2207 2208 2209 2210 2211 2212
          9 4 3 7 14 15
          16 17 24 25 26 30
          31 35 36 37 41 50
          51 52 53 54 59 60
          61 62 63 69 70 71
          72 84 85 86 87 88
          89 100 101 102 103 104
          105 106 107 119 120 121
          122 123 124 125 126 127
          128 129 130 146 147 148
          149 150 151 169 170 171
          172 173 174 175 176 177
          178 179 197 198 199 200
          201 202 203 204 205 206
          207 208 209 210 211 212
          213 214 215 216 244 245
          246 247 248 249 250 251
          252 253 254 255 256 257
          258 259 260 261 288 289
          290 291 292 293 294 295
          296 297 298 299 300 301
          325 326 327 328 329 330
          331 332 333 334 335 336
          337 338 339 340 341 342
          343 344 345 346 347 387
          388 389 390 391 392 393
          394 395 396 397 398 399
          400 401 402 403 404 405
          406 407 408 409 410 411
          412 413 414 415 416 417
          418 419 420 421 422 423
          468 469 470 471 472 473
          474 475 476 477 478 479
          480 481 482 483 484 485
          486 487 488 489 490 491
          492 493 494 495 496 532
          533 534 535 536 537 538
          539 540 541 542 543 544
          545 546 547 548 549 550
          551 552 553 554 555 556
          557 558 559 611 612 613
          614 615 616 617 618 619
          620 621 622 623 624 625
          626 627 628 629 630 631
          632 633 634 635 636 637
          638 639 640 641 642 643
          644 645 706 707 708 709
          710 711 712 713 714 715
          716 717 718 719 720 721
          722 723 724 725 726 727
          728 729 730 731 732 733
          734 735 736 737 738 739
          740 741 742 743 744 745
          746 747 748 749 750 751
          752 753 754 811 812 813
          814 815 816 817 818 819
          820 821 822 823 824 825
          826 827 828 829 830 831
          832 833 834 835 836 837
          838 839 840 841 842 843
          844 845 846 847 848 849
          850 851 852 853 854 855
          856 857 858 917 918 919
          920 921 922 923 924 925
          926 927 928 929 930 931
          932 933 934 935 936 937
          938 939 940 941 942 943
          944 945 946 947 948 949
          950 951 952 953 954 955
          956 957 958 959 960 961
          962 963 964 965 966 967
          968 969 970 1050 1051 1052
          1053 1054 1055 1056 1057 1058
          1059 1060 1061 1062 1063 1064
          1065 1066 1067 1068 1069 1070
          1071 1072 1073 1074 1075 1076
          1077 1078 1079 1080 1081 1082
          1083 1084 1085 1086 1087 1088
          1089 1090 1091 1092 1093 1094
          1095 1096 1097 1098 1099 1100
          1101 1102 1103 1104 1184 1185
          1186 1187 1188 1189 1190 1191
          1192 1193 1194 1195 1196 1197
          1198 1199 1200 1201 1202 1203
          1204 1205 1206 1207 1208 1209
          1210 1211 1212 1213 1214 1215
          1216 1217 1218 1219 1220 1221
          1222 1223 1224 1225 1226 1227
          1228 1229 1230 1231 1232 1233
          1234 1235 1236 1237 1336 1337
          1338 1339 1340 1341 1342 1343
          1344 1345 1346 1347 1348 1349
          1350 1351 1352 1353 1354 1355
          1356 1357 1358 1359 1360 1361
          1362 1363 1364 1365 1366 1367
          1368 1369 1370 1371 1372 1373
          1374 1375 1376 1377 1378 1379
          1380 1381 1382 1383 1384 1385
          1386 1387 1388 1389 1390 1391
          1392 1393 1394 1395 1396 1397
          1398 1399 1400 1401 1402 1403
          1404 1405 1406 1407 1408 1491
          1492 1493 1494 1495 1496 1497
          1498 1499 1500 1501 1502 1503
          1504 1505 1506 1507 1508 1509
          1510 1511 1512 1513 1514 1515
          1516 1517 1518 1519 1520 1521
          1522 1523 1524 1525 1526 1527
          1528 1529 1530 1531 1532 1533
          1534 1535 1536 1537 1538 1539
          1540 1541 1542 1543 1544 1545
          1546 1547 1548 1549 1550 1551
          1552 1553 1554 1555 1556 1557
          1558 1559 1560 1561 1562 1660
          1661 1662 1663 1664 1665 1666
          1667 1668 1669 1670 1671 1672
          1673 1674 1675 1676 1677 1678
          1679 1680 1681 1682 1683 1684
          1685 1686 1687 1688 1689 1690
          1691 1692 1693 1694 1695 1696
          1697 1698 1699 1700 1701 1702
          1703 1704 1705 1706 1707 1708
          1709 1710 1711 1712 1713 1714
          1715 1716 1717 1718 1719 1720
          1721 1722 1723 1724 1725 1726
          1727 1728 1729 1832 1833 1834
          1835 1836 1837 1838 1839 1840
          1841 1842 1843 1844 1845 1846
          1847 1848 1849 1850 1851 1852
          1853 1854 1855 1856 1857 1858
          1859 1860 1861 1862 1863 1864
          1865 1866 1867 1868 1869 1870
          1871 1872 1873 1874 1875 1876
          1877 1878 1879 1880 1881 1882
          1883 1884 1885 1886 1887 1888
          1889 1890 1891 1892 1893 1894
          1895 1896 1897 1898 1899 1900
          2006 2007 2008 2009 2010 2011
          2012 2013 2014 2015 2016 2017
          2018 2019 2020 2021 2022 2023
          2024 2025 2026 2027 2028 2029
          2030 2031 2032 2033 2034 2035
          2036 2037 2038 2039 2040 2041
          2042 2043 2044 2045 2046 2047
          2048 2049 2050 2051 2052 2053
          2054 2055 2056 2057 2058 2059
          2060 2061 2062 2063 2064 2065
          2066 2067 2068 2069 2070 2071
          2072 2073 2074 2075 2076 2077
          2078 2079 2080 2081 2082 2083
          2213 2214 2215 2216 2217 2218
          2219 2220 2221 2222 2223 2224
          2225 2226 2227 2228 2229 2230
          2231 2232 2233 2234 2235 2236
          2237 2238 2239 2240 2241 2242
          2243 2244 2245 2246 2247 2248
          2249 2250 2251 2252 2253 2254
          2255 2256 2257 2258 2259 2260
          2261 2262 2263 2264 2265 2266
          2267 2268 2269 2270 2271 2272
          2273 2274 2275 2276 2277 2278
          2279 2280 2281 2282 2283 2284
          2285 2286 2287 2288 2289 10
          1 18 19 27 28 38
          39 42 55 56 64 73
          74 75 76 77 90 108
          109 110 111 112 131 132
          133 152 153 154 155 156
          157 180 181 182 183 184
          185 217 218 219 220 221
          222 223 224 262 263 264
          265 266 267 268 302 303
          304 305 306 307 308 348
          349 350 351 352 353 354
          355 356 357 358 359 360
          361 362 363 424 425 426
          427 428 429 430 431 432
          433 434 435 436 437 497
          498 499 500 501 502 503
          560 561 562 563 564 565
          566 567 568 569 570 571
          572 573 574 646 647 648
          649 650 651 652 653 654
          655 656 657 658 659 660
          661 662 663 664 665 666
          755 756 757 758 759 760
          761 762 763 764 765 766
          767 768 769 770 771 772
          773 774 859 2331 861 862
          863 864 865 866 867 868
          869 870 871 872 873 874
          875 876 877 878 879 880
          881 971 972 973 974 975
          976 977 978 979 980 981
          982 983 984 985 986 987
          988 989 990 991 992 1105
          1106 1107 1108 1109 1110 1111
          1112 1113 1114 1115 1116 1117
          1118 1119 1120 1121 1122 1123
          1124 1125 1126 1127 1128 1129
          1238 1239 1240 1241 1242 1243
          1244 1245 1246 1247 1248 1249
          1250 1251 1252 1253 1254 1255
          1256 1257 1258 1259 1260 1261
          1262 1263 1264 1265 1266 1267
          1268 1269 1270 1409 1410 1411
          1412 1413 1414 1415 1416 1417
          1418 1419 1420 1421 1422 1423
          1424 1425 1426 1427 1428 1429
          1430 1431 1432 1433 1434 1435
          1436 1437 1438 1439 1563 1564
          1565 1566 1567 1568 1569 1570
          1571 1572 1573 1574 1575 1576
          1577 1578 1579 1580 1581 1582
          1583 1584 1585 1586 1587 1588
          1589 1590 1591 1592 1593 1594
          1730 1731 1732 1733 1734 1735
          1736 1737 1738 1739 1740 1741
          1742 1743 1744 1745 1746 1747
          1748 1749 1750 1751 1752 1753
          1754 1755 1756 1757 1758 1759
          1760 1761 1762 1901 1902 1903
          1904 1905 1906 1907 1908 1909
          1910 1911 1912 1913 1914 1915
          1916 1917 1918 1919 1920 1921
          1922 1923 1924 1925 1926 1927
          1928 1929 1930 2084 2085 2086
          2087 2088 2089 2090 2091 2092
          2093 2094 2095 2096 2097 2098
          2099 2100 2101 2102 2103 2104
          2105 2106 2107 2108 2109 2110
          2111 2112 2113 2114 2115 2116
          2117 2118 2119 2120 2121 2122
          2123 2124 2125 2126 2127 2128
          2290 2291 2292 2293 2294 2295
          2296 2297 2298 2299 2300 2301
          2302 2303 2304 2305 2306 2307
          2308 2309 2330 2311 2312 2313
          2314 2315 2316 2317 2318 2319
          2320 2321 2322 2323 2324 2325
          2326 2327 2328 2329 2 20
          29 40 43 65 66 91
          92 93 134 135 136 137
          158 159 186 187 188 225
          226 227 228 269 270 271
          272 273 309 310 311 312
          364 365 366 367 368 369
          370 438 439 440 441 442
          443 444 445 446 504 505
          506 507 508 509 575 576
          577 578 579 667 668 669
          670 671 672 673 674 675
          676 677 678 775 776 777
          778 779 780 781 782 783
          784 785 786 787 788 789
          790 882 883 884 885 886
          887 888 889 890 891 892
          893 894 993 994 995 996
          997 998 999 1000 1130 1131
          1132 1133 1134 1135 1136 1137
          1138 1139 1140 1141 1142 1271
          1272 1273 1274 1275 1276 1277
          1278 1279 1280 1281 1282 1283
          1284 1285 1286 1287 1288 1440
          1441 1442 1443 1444 1445 1446
          1447 1448 1449 1450 1451 1452
          1453 1454 1455 1456 1595 1596
          1597 1598 1599 1600 1601 1602
          1603 1604 1605 1606 1607 1608
          1609 1610 1763 1764 1765 1766
          1767 1768 1769 1770 1771 1772
          1773 1774 1775 1776 1777 1778
          1779 1780 1781 1931 1932 1933
          1934 1935 1936 1937 1938 1939
          1940 1941 1942 1943 1944 1945
          1946 1947 1948 1949 1950 1951
          1952 1953 2129 2130 2131 2132
          2133 2134 2135 2136 2137 2138
          2139 2140 2141 2142 2143 2144
          2145 2146 2147 2148 2149 2150
          2151 2152 2153 2154 2155 2156
          2157 2158 2159 2160 2161 2162
          2163 2332 2333 2334 2335 2336
          2337 2338 2339 2340 2341 2342
          2343 2344 2345 2346 2347 2348
          2349 2350 2351 2352 2353 860
          2310
        </DataArray>
        <DataArray type="Int32" Name="type" format="ascii" RangeMin="1" RangeMax="1">
          1 1 1 1 1 1
          1 1 1 1 1 1
          1 1 1 1 1 1
          1 1 1 1 1 1
          1 1 1 1 1 1
          1 1 1 1 1 1
          1 1 1 1 1 1
          1 1 1 1 1 1
          1 1 1 1 1 1
          1 1 1 1 1 1
          1 1 1 1 1 1
          1 1 1 1 1 1
          1 1 1 1 1 1
          1 1 1 1 1 1
          1 1 1 1 1 1
          1 1 1 1 1 1
          1 1 1 1 1 1
          1 1 1 1 1 1
          1 1 1 1 1 1
          1 1 1 1 1 1
          1 1 1 1 1 1
          1 1 1 1 1 1
          1 1 1 1 1 1
          1 1 1 1 1 1
          1 1 1 1 1 1
          1 1 1 1 1 1
          1 1 1 1 1 1
          1 1 1 1 1 1
          1 1 1 1 1 1
          1 1 1 1 1 1
          1 1 1 1 1 1
          1 1 1 1 1 1
          1 1 1 1 1 1
          1 1 1 1 1 1
          1 1 1 1 1 1
          1 1 1 1 1 1
          1 1 1 1 1 1
          1 1 1 1 1 1
          1 1 1 1 1 1
          1 1 1 1 1 1
          1 1 1 1 1 1
          1 1 1 1 1 1
          1 1 1 1 1 1
          1 1 1 1 1 1
          1 1 1 1 1 1
          1 1 1 1 1 1
          1 1 1 1 1 1
          1 1 1 1 1 1
          1 1 1 1 1 1
          1 1 1 1 1 1
          1 1 1 1 1 1
          1 1 1 1 1 1
          1 1 1 1 1 1
          1 1 1 1 1 1
          1 1 1 1 1 1
          1 1 1 1 1 1
          1 1 1 1 1 1
          1 1 1 1 1 1
          1 1 1 1 1 1
          1 1 1 1 1 1
          1 1 1 1 1 1
          1 1 1 1 1 1
          1 1 1 1 1 1
          1 1 1 1 1 1
          1 1 1 1 1 1
          1 1 1 1 1 1
          1 1 1 1 1 1
          1 1 1 1 1 1
          1 1 1 1 1 1
          1 1 1 1 1 1
          1 1 1 1 1 1
          1 1 1 1 1 1
          1 1 1 1 1 1
          1 1 1 1 1 1
          1 1 1 1 1 1
          1 1 1 1 1 1
          1 1 1 1 1 1
          1 1 1 1 1 1
          1 1 1 1 1 1
          1 1 1 1 1 1
          1 1 1 1 1 1
          1 1 1 1 1 1
          1 1 1 1 1 1
          1 1 1 1 1 1
          1 1 1 1 1 1
          1 1 1 1 1 1
          1 1 1 1 1 1
          1 1 1 1 1 1
          1 1 1 1 1 1
          1 1 1 1 1 1
          1 1 1 1 1 1
          1 1 1 1 1 1
          1 1 1 1 1 1
          1 1 1 1 1 1
          1 1 1 1 1 1
          1 1 1 1 1 1
          1 1 1 1 1 1
          1 1 1 1 1 1
          1 1 1 1 1 1
          1 1 1 1 1 1
          1 1 1 1 1 1
          1 1 1 1 1 1
          1 1 1 1 1 1
          1 1 1 1 1 1
          1 1 1 1 1 1
          1 1 1 1 1 1
          1 1 1 1 1 1
          1 1 1 1 1 1
          1 1 1 1 1 1
          1 1 1 1 1 1
          1 1 1 1 1 1
          1 1 1 1 1 1
          1 1 1 1 1 1
          1 1 1 1 1 1
          1 1 1 1 1 1
          1 1 1 1 1 1
          1 1 1 1 1 1
          1 1 1 1 1 1
          1 1 1 1 1 1
          1 1 1 1 1 1
          1 1 1 1 1 1
          1 1 1 1 1 1
          1 1 1 1 1 1
          1 1 1 1 1 1
          1 1 1 1 1 1
          1 1 1 1 1 1
          1 1 1 1 1 1
          1 1 1 1 1 1
          1 1 1 1 1 1
          1 1 1 1 1 1
          1 1 1 1 1 1
          1 1 1 1 1 1
          1 1 1 1 1 1
          1 1 1 1 1 1
          1 1 1 1 1 1
          1 1 1 1 1 1
          1 1 1 1 1 1
          1 1 1 1 1 1
          1 1 1 1 1 1
          1 1 1 1 1 1
          1 1 1 1 1 1
          1 1 1 1 1 1
          1 1 1 1 1 1
          1 1 1 1 1 1
          1 1 1 1 1 1
          1 1 1 1 1 1
          1 1 1 1 1 1
          1 1 1 1 1 1
          1 1 1 1 1 1
          1 1 1 1 1 1
          1 1 1 1 1 1
          1 1 1 1 1 1
          1 1 1 1 1 1
          1 1 1 1 1 1
          1 1 1 1 1 1
          1 1 1 1 1 1
          1 1 1 1 1 1
          1 1 1 1 1 1
          1 1 1 1 1 1
          1 1 1 1 1 1
          1 1 1 1 1 1
          1 1 1 1 1 1
          1 1 1 1 1 1
          1 1 1 1 1 1
          1 1 1 1 1 1
          1 1 1 1 1 1
          1 1 1 1 1 1
          1 1 1 1 1 1
          1 1 1 1 1 1
          1 1 1 1 1 1
          1 1 1 1 1 1
          1 1 1 1 1 1
          1 1 1 1 1 1
          1 1 1 1 1 1
          1 1 1 1 1 1
          1 1 1 1 1 1
          1 1 1 1 1 1
          1 1 1 1 1 1
          1 1 1 1 1 1
          1 1 1 1 1 1
          1 1 1 1 1 1
          1 1 1 1 1 1
          1 1 1 1 1 1
          1 1 1 1 1 1
          1 1 1 1 1 1
          1 1 1 1 1 1
          1 1 1 1 1 1
          1 1 1 1 1 1
          1 1 1 1 1 1
          1 1 1 1 1 1
          1 1 1 1 1 1
          1 1 1 1 1 1
          1 1 1 1 1 1
          1 1 1 1 1 1
          1 1 1 1 1 1
          1 1 1 1 1 1
          1 1 1 1 1 1
          1 1 1 1 1 1
          1 1 1 1 1 1
          1 1 1 1 1 1
          1 1 1 1 1 1
          1 1 1 1 1 1
          1 1 1 1 1 1
          1 1 1 1 1 1
          1 1 1 1 1 1
          1 1 1 1 1 1
          1 1 1 1 1 1
          1 1 1 1 1 1
          1 1 1 1 1 1
          1 1 1 1 1 1
          1 1 1 1 1 1
          1 1 1 1 1 1
          1 1 1 1 1 1
          1 1 1 1 1 1
          1 1 1 1 1 1
          1 1 1 1 1 1
          1 1 1 1 1 1
          1 1 1 1 1 1
          1 1 1 1 1 1
          1 1 1 1 1 1
          1 1 1 1 1 1
          1 1 1 1 1 1
          1 1 1 1 1 1
          1 1 1 1 1 1
          1 1 1 1 1 1
          1 1 1 1 1 1
          1 1 1 1 1 1
          1 1 1 1 1 1
          1 1 1 1 1 1
          1 1 1 1 1 1
          1 1 1 1 1 1
          1 1 1 1 1 1
          1 1 1 1 1 1
          1 1 1 1 1 1
          1 1 1 1 1 1
          1 1 1 1 1 1
          1 1 1 1 1 1
          1 1 1 1 1 1
          1 1 1 1 1 1
          1 1 1 1 1 1
          1 1 1 1 1 1
          1 1 1 1 1 1
          1 1 1 1 1 1
          1 1 1 1 1 1
          1 1 1 1 1 1
          1 1 1 1 1 1
          1 1 1 1 1 1
          1 1 1 1 1 1
          1 1 1 1 1 1
          1 1 1 1 1 1
          1 1 1 1 1 1
          1 1 1 1 1 1
          1 1 1 1 1 1
          1 1 1 1 1 1
          1 1 1 1 1 1
          1 1 1 1 1 1
          1 1 1 1 1 1
          1 1 1 1 1 1
          1 1 1 1 1 1
          1 1 1 1 1 1
          1 1 1 1 1 1
          1 1 1 1 1 1
          1 1 1 1 1 1
          1 1 1 1 1 1
          1 1 1 1 1 1
          1 1 1 1 1 1
          1 1 1 1 1 1
          1 1 1 1 1 1
          1 1 1 1 1 1
          1 1 1 1 1 1
          1 1 1 1 1 1
          1 1 1 1 1 1
          1 1 1 1 1 1
          1 1 1 1 1 1
          1 1 1 1 1 1
          1 1 1 1 1 1
          1 1 1 1 1 1
          1 1 1 1 1 1
          1 1 1 1 1 1
          1 1 1 1 1 1
          1 1 1 1 1 1
          1 1 1 1 1 1
          1 1 1 1 1 1
          1 1 1 1 1 1
          1 1 1 1 1 1
          1 1 1 1 1 1
          1 1 1 1 1 1
          1 1 1 1 1 1
          1 1 1 1 1 1
          1 1 1 1 1 1
          1 1 1 1 1 1
          1 1 1 1 1 1
          1 1 1 1 1 1
          1 1 1 1 1 1
          1 1 1 1 1 1
          1 1 1 1 1 1
          1 1 1 1 1 1
          1 1 1 1 1 1
          1 1 1 1 1 1
          1 1 1 1 1 1
          1 1 1 1 1 1
          1 1 1 1 1 1
          1 1 1 1 1 1
          1 1 1 1 1 1
          1 1 1 1 1 1
          1 1 1 1 1 1
          1 1 1 1 1 1
          1 1 1 1 1 1
          1 1 1 1 1 1
          1 1 1 1 1 1
          1 1 1 1 1 1
          1 1 1 1 1 1
          1 1 1 1 1 1
          1 1 1 1 1 1
          1 1 1 1 1 1
          1 1 1 1 1 1
          1 1 1 1 1 1
          1 1 1 1 1 1
          1 1 1 1 1 1
          1 1 1 1 1 1
          1 1 1 1 1 1
          1 1 1 1 1 1
          1 1 1 1 1 1
          1 1 1 1 1 1
          1 1 1 1 1 1
          1 1 1 1 1 1
          1 1 1 1 1 1
          1 1 1 1 1 1
          1 1 1 1 1 1
          1 1 1 1 1 1
          1 1 1 1 1 1
          1 1 1 1 1 1
          1 1 1 1 1 1
          1 1 1 1 1 1
          1 1 1 1 1 1
          1 1 1 1 1 1
          1 1 1 1 1 1
          1 1 1 1 1 1
          1 1 1 1 1 1
          1 1 1 1 1 1
          1 1 1 1 1 1
          1 1 1 1 1 1
          1 1 1 1 1 1
          1 1 1 1 1 1
          1 1 1 1 1 1
          1 1 1 1 1 1
          1 1 1 1 1 1
          1 1 1 1 1 1
          1 1 1 1 1 1
          1 1 1 1 1 1
          1 1 1 1 1 1
          1 1 1 1 1 1
          1 1 1 1 1 1
          1 1 1 1 1 1
          1 1 1 1 1 1
          1 1 1 1 1 1
          1 1 1 1 1 1
          1 1 1 1 1 1
          1 1 1 1 1 1
          1 1 1 1 1 1
          1 1 1 1 1 1
          1 1 1 1 1 1
          1 1 1 1 1 1
          1 1 1 1 1 1
          1 1 1 1 1 1
          1 1 1 1 1 1
          1 1 1 1 1 1
          1 1 1 1 1 1
          1 1 1 1 1 1
          1 1 1 1 1 1
          1 1 1 1 1 1
          1 1 1 1 1 1
          1 1 1 1 1 1
          1 1 1 1 1 1
          1 1 1 1 1 1
          1 1 1 1 1 1
          1 1 1 1 1 1
          1 1 1 1 1 1
          1 1 1 1 1 1
          1 1 1 1 1 1
          1 1 1 1 1 1
          1 1 1 1 1 1
          1 1 1 1 1 1
          1 1 1 1 1 1
          1 1 1 1 1 1
          1 1 1 1 1 1
          1 1 1 1 1 1
          1 1 1 1 1 1
          1 1 1 1 1 1
          1 1 1 1 1 1
          1 1 1 1 1 1
          1 1 1 1 1 1
          1
        </DataArray>
        <DataArray type="Float64" Name="diameter" format="ascii" RangeMin="1.0054247488e-06" RangeMax="1.359797856e-06">
          1.2022126287e-06 1.0848419752e-06 1.0523191128e-06 1.2236188695e-06 1.2156387756e-06 1.1436649072e-06
          1.2432118181e-06 1.1944399416e-06 1.3589286685e-06 1.1517918965e-06 1.0958845795e-06 1.1266725866e-06
          1.2551254513e-06 1.1685395423e-06 1.0735755904e-06 1.216296138e-06 1.1971357576e-06 1.2602251294e-06
          1.1423222225e-06 1.2236172449e-06 1.2318478954e-06 1.2718815788e-06 1.3216130943e-06 1.3386376101e-06
          1.2447161375e-06 1.3305113324e-06 1.3361456138e-06 1.2443908709e-06 1.0989034927e-06 1.2671309915e-06
          1.3586784476e-06 1.1292641633e-06 1.2224979713e-06 1.1840012527e-06 1.1800737307e-06 1.3499478918e-06
          1.1931988623e-06 1.2748997826e-06 1.225168053e-06 1.0807449384e-06 1.1338252887e-06 1.2162703156e-06
          1.3175705454e-06 1.2213590657e-06 1.3220226129e-06 1.1251365692e-06 1.3263371153e-06 1.1807558662e-06
          1.2587037182e-06 1.0958928978e-06 1.2581690118e-06 1.0175559665e-06 1.229482539e-06 1.1304317586e-06
          1.0939570612e-06 1.2399197352e-06 1.1785503838e-06 1.1989620509e-06 1.1738418193e-06 1.202390738e-06
          1.2539219745e-06 1.2264179389e-06 1.2500199657e-06 1.2172738485e-06 1.2057261848e-06 1.2630159112e-06
          1.2270292157e-06 1.0394236669e-06 1.240973325e-06 1.1129132415e-06 1.181554708e-06 1.1956105823e-06
          1.2699832532e-06 1.3183920649e-06 1.2173317137e-06 1.2022750544e-06 1.3521301676e-06 1.2570359819e-06
          1.1293083533e-06 1.216002205e-06 1.2050046056e-06 1.140240906e-06 1.335258854e-06 1.2652611164e-06
          1.3014538727e-06 1.3582038748e-06 1.3349267261e-06 1.3117762673e-06 1.0885599185e-06 1.1970630296e-06
          1.2203907798e-06 1.3578459313e-06 1.2226278311e-06 1.2606558218e-06 1.1989944959e-06 1.3189437022e-06
          1.3502243169e-06 1.282965775e-06 1.1786585592e-06 1.2637985356e-06 1.144391646e-06 1.2331176325e-06
          1.1592692132e-06 1.2627059908e-06 1.2638174025e-06 1.1115602303e-06 1.2845990564e-06 1.2663708357e-06
          1.1726671812e-06 1.2892555726e-06 1.2293541338e-06 1.2178358756e-06 1.291042638e-06 1.3458741318e-06
          1.3327322909e-06 1.3010207972e-06 1.2865307006e-06 1.3102297296e-06 1.256302834e-06 1.3440866614e-06
          1.0419385124e-06 1.1021506239e-06 1.2930288305e-06 1.3111101334e-06 1.1641426236e-06 1.1015945003e-06
          1.1071568059e-06 1.3400578307e-06 1.1645164954e-06 1.1476513949e-06 1.3180189111e-06 1.2657575539e-06
          1.1617060547e-06 1.3069716041e-06 1.3564537648e-06 1.1874042719e-06 1.0804321747e-06 1.2670218072e-06
          1.2424292318e-06 1.2388745269e-06 1.359558016e-06 1.1681777923e-06 1.2209924159e-06 1.3568086955e-06
          1.0910344827e-06 1.0593816303e-06 1.2270892055e-06 1.1170689005e-06 1.0768742957e-06 1.1397588187e-06
          1.1377687583e-06 1.1087153281e-06 1.2178714339e-06 1.1511846535e-06 1.2194770507e-06 1.1240157309e-06
          1.2315018307e-06 1.1289237055e-06 1.2676084693e-06 1.2063828986e-06 1.1565774086e-06 1.2012643176e-06
          1.2302401003e-06 1.1958479974e-06 1.2414886335e-06 1.1901918929e-06 1.1729910013e-06 1.0199571365e-06
          1.1693441358e-06 1.2909950877e-06 1.2195809163e-06 1.0458102495e-06 1.1796347e-06 1.1622350303e-06
          1.3139233156e-06 1.1640745767e-06 1.1146857371e-06 1.356440637e-06 1.131255296e-06 1.16373613e-06
          1.1185298895e-06 1.1817126498e-06 1.0941192937e-06 1.1553455871e-06 1.1588385111e-06 1.2354079027e-06
          1.2153713663e-06 1.042475074e-06 1.2573689961e-06 1.2890692402e-06 1.1638770261e-06 1.2281944483e-06
          1.1553698736e-06 1.3201388108e-06 1.2286415636e-06 1.0353420115e-06 1.3204324844e-06 1.2544891709e-06
          1.3327724884e-06 1.0759690464e-06 1.1955877696e-06 1.1501191948e-06 1.1579594246e-06 1.3211789499e-06
          1.0346717261e-06 1.1679686686e-06 1.1534119858e-06 1.1392947415e-06 1.093259168e-06 1.3452229103e-06
          1.2670751525e-06 1.0762575504e-06 1.3116940769e-06 1.2233011286e-06 1.2706282181e-06 1.3340845634e-06
          1.1123306015e-06 1.103308526e-06 1.2733781892e-06 1.3363140606e-06 1.2159162938e-06 1.2085526351e-06
          1.1677131402e-06 1.2439423833e-06 1.1453970286e-06 1.275595144e-06 1.1992973139e-06 1.0501502011e-06
          1.2718153545e-06 1.3313314222e-06 1.2937920068e-06 1.2021481309e-06 1.0906882738e-06 1.3096090335e-06
          1.3102864955e-06 1.1730318379e-06 1.139886598e-06 1.2789415764e-06 1.3289542123e-06 1.0224837756e-06
          1.1550471705e-06 1.2428178129e-06 1.1293670412e-06 1.3073996637e-06 1.2974049497e-06 1.155393788e-06
          1.2373681695e-06 1.244074666e-06 1.2831162415e-06 1.3399885608e-06 1.2819484474e-06 1.2711805497e-06
          1.063519871e-06 1.2178222026e-06 1.2810718378e-06 1.3305669724e-06 1.2236649696e-06 1.1808842055e-06
          1.0866044256e-06 1.27990644e-06 1.3338178008e-06 1.2347699908e-06 1.2394868153e-06 1.3217104028e-06
          1.2677802513e-06 1.1804612486e-06 1.2332947452e-06 1.1660706094e-06 1.3228580941e-06 1.2966086436e-06
          1.2608137293e-06 1.1059339025e-06 1.2067906722e-06 1.3032468576e-06 1.1881657697e-06 1.3487795079e-06
          1.2054855134e-06 1.179249456e-06 1.2832080916e-06 1.3015094846e-06 1.1547889372e-06 1.1664635477e-06
          1.1787705585e-06 1.3195513099e-06 1.2922357336e-06 1.2666647552e-06 1.2284998925e-06 1.320073387e-06
          1.1878908299e-06 1.1973686307e-06 1.3435059741e-06 1.3548317726e-06 1.1295374898e-06 1.104310701e-06
          1.2252006759e-06 1.3194377109e-06 1.1674299721e-06 1.1305487915e-06 1.3189612522e-06 1.2595218929e-06
          1.2084124519e-06 1.2734197377e-06 1.3558829604e-06 1.2378129826e-06 1.1399317375e-06 1.2474734082e-06
          1.0857592133e-06 1.1170337688e-06 1.1200241647e-06 1.2366269336e-06 1.2049772525e-06 1.1991399098e-06
          1.200907247e-06 1.1502126107e-06 1.3448057078e-06 1.3406062768e-06 1.1564264408e-06 1.0964996738e-06
          1.0223187164e-06 1.2813468023e-06 1.0827434152e-06 1.3575796742e-06 1.1983541001e-06 1.1983141527e-06
          1.24222247e-06 1.3444834612e-06 1.2688473272e-06 1.1158569046e-06 1.2611383851e-06 1.2436735361e-06