<?xml version="1.0"?>
<VTKFile type="UnstructuredGrid" version="0.1" byte_order="LittleEndian" header_type="UInt32" compressor="vtkZLibDataCompressor">
  <UnstructuredGrid>
    <Piece NumberOfPoints="2163" NumberOfCells="2163">
      <PointData>
        <DataArray type="Int32" Name="id" format="ascii" RangeMin="1" RangeMax="2163">
          8 6 5 11 12 13
          21 22 23 32 33 34
          44 45 46 47 48 49
          57 58 67 68 78 79
          80 81 82 83 94 95
          96 97 98 99 113 114
          115 116 117 118 138 139
          140 141 142 143 144 145
          160 161 162 163 164 165
          166 167 168 189 190 191
          192 193 194 195 196 229
          230 231 232 233 234 235
          236 237 238 239 240 241
          242 243 274 275 276 277
          278 279 280 281 282 283
          284 285 286 287 313 314
          315 316 317 318 319 320
          321 322 323 324 371 372
          373 374 375 376 377 378
          379 380 381 382 383 384
          385 386 447 448 449 450
          451 452 453 454 455 456
          457 458 459 460 461 462
          463 464 465 466 467 510
          511 512 513 514 515 516
          517 518 519 520 521 522
          523 524 525 526 527 528
          529 530 531 580 581 582
          583 584 585 586 587 588
          589 590 591 592 593 594
          595 596 597 598 599 600
          601 602 603 604 605 606
          607 608 609 610 679 680
          681 682 683 684 685 686
          687 688 689 690 691 692
          693 694 695 696 697 698
          699 700 701 702 703 704
          705 791 792 793 794 795
          796 797 798 799 800 801
          802 803 804 805 806 807
          808 809 810 895 896 897
          898 899 900 901 902 903
          904 905 906 907 908 909
          910 911 912 913 914 915
          916 1001 1002 1003 1004 1005
          1006 1007 1008 1009 1010 1011
          1012 1013 1014 1015 1016 1017
          1018 1019 1020 1021 1022 1023
          1024 1025 1026 1027 1028 1029
          1030 1031 1032 1033 1034 1035
          1036 1037 1038 1039 1040 1041
          1042 1043 1044 1045 1046 1047
          1048 1049 1143 1144 1145 1146
          1147 1148 1149 1150 1151 1152
          1153 1154 1155 1156 1157 1158
          1159 1160 1161 1162 1163 1164
          1165 1166 1167 1168 1169 1170
          1171 1172 1173 1174 1175 1176
          1177 1178 1179 1180 1181 1182
          1183 1289 1290 1291 1292 1293
          1294 1295 1296 1297 1298 1299
          1300 1301 1302 1303 1304 1305
          1306 1307 1308 1309 1310 1311
          1312 1313 1314 1315 1316 1317
          1318 1319 1320 1321 1322 1323
          1324 1325 1326 1327 1328 1329
          1330 1331 1332 1333 1334 1335
          1457 1458 1459 1460 1461 1462
          1463 1464 1465 1466 1467 1468
          1469 1470 1471 1472 1473 1474
          1475 1476 1477 1478 1479 1480
          1481 1482 1483 1484 1485 1486
          1487 1488 1489 1490 1611 1612
          1613 1614 1615 1616 1617 1618
          1619 1620 1621 1622 1623 1624
          1625 1626 1627 1628 1629 1630
          1631 1632 1633 1634 1635 1636
          1637 1638 1639 1640 1641 1642
          1643 1644 1645 1646 1647 1648
          1649 1650 1651 1652 1653 1654
          1655 1656 1657 1658 1659 1782
          1783 1784 1785 1786 1787 1788
          1789 1790 1791 1792 1793 1794
          1795 1796 1797 1798 1799 1800
          1801 1802 1803 1804 1805 1806
          1807 1808 1809 1810 1811 1812
          1813 1814 1815 1816 1817 1818
          1819 1820 1821 1822 1823 1824
          1825 1826 1827 1828 1829 1830
          1831 1954 1955 1956 1957 1958
          1959 1960 1961 1962 1963 1964
          1965 1966 1967 1968 1969 1970
          1971 1972 1973 1974 1975 1976
          1977 1978 1979 1980 1981 1982
          1983 1984 1985 1986 1987 1988
          1989 1990 1991 1992 1993 1994
          1995 1996 1997 1998 1999 2000
          2001 2002 2003 2004 2005 9
          4 3 7 14 15 16
          17 24 25 26 30 31
          35 36 37 41 50 51
          52 53 54 59 60 61
          62 63 69 70 71 72
          84 85 86 87 88 89
          100 101 102 103 104 105
          106 107 119 120 121 122
          123 124 125 126 127 128
          129 130 146 147 148 149
          150 151 169 170 171 172
          173 174 175 176 177 178
          179 197 198 199 200 201
          202 203 204 205 206 207
          208 209 210 211 212 213
          214 215 216 244 245 246
          247 248 249 250 251 252
          253 254 255 256 257 258
          259 260 261 288 289 290
          291 292 293 294 295 296
          297 298 299 300 301 325
          326 327 328 329 330 331
          332 333 334 335 336 337
          338 339 340 341 342 343
          344 345 346 347 387 388
          389 390 391 392 393 394
          395 396 397 398 399 400
          401 402 403 404 405 406
          407 408 409 410 411 412
          413 414 415 416 417 418
          419 420 421 422 423 468
          469 470 471 472 473 474
          475 476 477 478 479 480
          481 482 483 484 485 486
          487 488 489 490 491 492
          493 494 495 496 532 533
          534 535 536 537 538 539
          540 541 542 543 544 545
          546 547 548 549 550 551
          552 553 554 555 556 557
          558 559 611 612 613 614
          615 616 617 618 619 620
          621 622 623 624 625 626
          627 628 629 630 631 632
          633 634 635 636 637 638
          639 640 641 642 643 644
          645 706 707 708 709 710
          711 712 713 714 715 716
          717 718 719 720 721 722
          723 724 725 726 727 728
          729 730 731 732 733 734
          735 736 737 738 739 740
          741 742 743 744 745 746
          747 748 749 750 751 752
          753 754 811 812 813 814
          815 816 817 818 819 820
          821 822 823 824 825 826
          827 828 829 830 831 832
          833 834 835 836 837 838
          839 840 841 842 843 844
          845 846 847 848 849 850
          851 852 853 854 855 856
          857 858 917 918 919 920
          921 922 923 924 925 926
          927 928 929 930 931 932
          933 934 935 936 937 938
          939 940 941 942 943 944
          945 946 947 948 949 950
          951 952 953 954 955 956
          957 958 959 960 961 962
          963 964 965 966 967 968
          969 970 1050 1051 1052 1053
          1054 1055 1056 1057 1058 1059
          1060 1061 1062 1063 1064 1065
          1066 1067 1068 1069 1070 1071
          1072 1073 1074 1075 1076 1077
          1078 1079 1080 1081 1082 1083
          1084 1085 1086 1087 1088 1089
          1090 1091 1092 1093 1094 1095
          1096 1097 1098 1099 1100 1101
          1102 1103 1104 1184 1185 1186
          1187 1188 1189 1190 1191 1192
          1193 1194 1195 1196 1197 1198
          1199 1200 1201 1202 1203 1204
          1205 1206 1207 1208 1209 1210
          1211 1212 1213 1214 1215 1216
          1217 1218 1219 1220 1221 1222
          1223 1224 1225 1226 1227 1228
          1229 1230 1231 1232 1233 1234
          1235 1236 1237 1336 1337 1338
          1339 1340 1341 1342 1343 1344
          1345 1346 1347 1348 1349 1350
          1351 1352 1353 1354 1355 1356
          1357 1358 1359 1360 1361 1362
          1363 1364 1365 1366 1367 1368
          1369 1370 1371 1372 1373 1374
          1375 1376 1377 1378 1379 1380
          1381 1382 1383 1384 1385 1386
          1387 1388 1389 1390 1391 1392
          1393 1394 1395 1396 1397 1398
          1399 1400 1401 1402 1403 1404
          1405 1406 1407 1408 1491 1492
          1493 1494 1495 1496 1497 1498
          1499 1500 1501 1502 1503 1504
          1505 1506 1507 1508 1509 1510
          1511 1512 1513 1514 1515 1516
          1517 1518 1519 1520 1521 1522
          1523 1524 1525 1526 1527 1528
          1529 1530 1531 1532 1533 1534
          1535 1536 1537 1538 1539 1540
          1541 1542 1543 1544 1545 1546
          1547 1548 1549 1550 1551 1552
          1553 1554 1555 1556 1557 1558
          1559 1560 1561 1562 1660 1661
          1662 1663 1664 1665 1666 1667
          1668 1669 1670 1671 1672 1673
          1674 1675 1676 1677 1678 1679
          1680 1681 1682 1683 1684 1685
          1686 1687 1688 1689 1690 1691
          1692 1693 1694 1695 1696 1697
          1698 1699 1700 1701 1702 1703
          1704 1705 1706 1707 1708 1709
          1710 1711 1712 1713 1714 1715
          1716 1717 1718 1719 1720 1721
          1722 1723 1724 1725 1726 1727
          1728 1729 1832 1833 1834 1835
          1836 1837 1838 1839 1840 1841
          1842 1843 1844 1845 1846 1847
          1848 1849 1850 1851 1852 1853
          1854 1855 1856 1857 1858 1859
          1860 1861 1862 1863 1864 1865
          1866 1867 1868 1869 1870 1871
          1872 1873 1874 1875 1876 1877
          1878 1879 1880 1881 1882 1883
          1884 1885 1886 1887 1888 1889
          1890 1891 1892 1893 1894 1895
          1896 1897 1898 1899 1900 2006
          2007 2008 2009 2010 2011 2012
          2013 2014 2015 2016 2017 2018
          2019 2020 2021 2022 2023 2024
          2025 2026 2027 2028 2029 2030
          2031 2032 2033 2034 2035 2036
          2037 2038 2039 2040 2041 2042
          2043 2044 2045 2046 2047 2048
          2049 2050 2051 2052 2053 2054
          2055 2056 2057 2058 2059 2060
          2061 2062 2063 2064 2065 2066
          2067 2068 2069 2070 2071 2072
          2073 2074 2075 2076 2077 2078
          2079 2080 2081 2082 2083 10
          1 18 19 27 28 38
          39 42 55 56 64 73
          74 75 76 77 90 108
          109 110 111 112 131 132
          133 152 153 154 155 156
          157 180 181 182 183 184
          185 217 218 219 220 221
          222 223 224 262 263 264
          265 266 267 268 302 303
          304 305 306 307 308 348
          349 350 351 352 353 354
          355 356 357 358 359 360
          361 362 363 424 425 426
          427 428 429 430 431 432
          433 434 435 436 437 497
          498 499 500 501 502 503
          560 561 562 563 564 565
          566 567 568 569 570 571
          572 573 574 646 647 648
          649 650 651 652 653 654
          655 656 657 658 659 660
          661 662 663 664 665 666
          755 756 757 758 759 760
          761 762 763 764 765 766
          767 768 769 770 771 772
          773 774 859 860 861 862
          863 864 865 866 867 868
          869 870 871 872 873 874
          875 876 877 878 879 880
          881 971 972 973 974 975
          976 977 978 979 980 981
          982 983 984 985 986 987
          988 989 990 991 992 1105
          1106 1107 1108 1109 1110 1111
          1112 1113 1114 1115 1116 1117
          1118 1119 1120 1121 1122 1123
          1124 1125 1126 1127 1128 1129
          1238 1239 1240 1241 1242 1243
          1244 1245 1246 1247 1248 1249
          1250 1251 1252 1253 1254 1255
          1256 1257 1258 1259 1260 1261
          1262 1263 1264 1265 1266 1267
          1268 1269 1270 1409 1410 1411
          1412 1413 1414 1415 1416 1417
          1418 1419 1420 1421 1422 1423
          1424 1425 1426 1427 1428 1429
          1430 1431 1432 1433 1434 1435
          1436 1437 1438 1439 1563 1564
          1565 1566 1567 1568 1569 1570
          1571 1572 1573 1574 1575 1576
          1577 1578 1579 1580 1581 1582
          1583 1584 1585 1586 1587 1588
          1589 1590 1591 1592 1593 1594
          1730 1731 1732 1733 1734 1735
          1736 1737 1738 1739 1740 1741
          1742 1743 1744 1745 1746 1747
          1748 1749 1750 1751 1752 1753
          1754 1755 1756 1757 1758 1759
          1760 1761 1762 1901 1902 1903
          1904 1905 1906 1907 1908 1909
          1910 1911 1912 1913 1914 1915
          1916 1917 1918 1919 1920 1921
          1922 1923 1924 1925 1926 1927
          1928 1929 1930 2084 2085 2086
          2087 2088 2089 2090 2091 2092
          2093 2094 2095 2096 2097 2098
          2099 2100 2101 2102 2103 2104
          2105 2106 2107 2108 2109 2110
          2111 2112 2113 2114 2115 2116
          2117 2118 2119 2120 2121 2122
          2123 2124 2125 2126 2127 2128
          2 20 29 40 43 65
          66 91 92 93 134 135
          136 137 158 159 186 187
          188 225 226 227 228 269
          270 271 272 273 309 310
          311 312 364 365 366 367
          368 369 370 438 439 440
          441 442 443 444 445 446
          504 505 506 507 508 509
          575 576 577 578 579 667
          668 669 670 671 672 673
          674 675 676 677 678 775
          776 777 778 779 780 781
          782 783 784 785 786 787
          788 789 790 882 883 884
          885 886 887 888 889 890
          891 892 893 894 993 994
          995 996 997 998 999 1000
          1130 1131 1132 1133 1134 1135
          1136 1137 1138 1139 1140 1141
          1142 1271 1272 1273 1274 1275
          1276 1277 1278 1279 1280 1281
          1282 1283 1284 1285 1286 1287
          1288 1440 1441 1442 1443 1444
          1445 1446 1447 1448 1449 1450
          1451 1452 1453 1454 1455 1456
          1595 1596 1597 1598 1599 1600
          1601 1602 1603 1604 1605 1606
          1607 1608 1609 1610 1763 1764
          1765 1766 1767 1768 1769 1770
          1771 1772 1773 1774 1775 1776
          1777 1778 1779 1780 1781 1931
          1932 1933 1934 1935 1936 1937
          1938 1939 1940 1941 1942 1943
          1944 1945 1946 1947 1948 1949
          1950 1951 1952 1953 2129 2130
          2131 2132 2133 2134 2135 2136
          2137 2138 2139 2140 2141 2142
          2143 2144 2145 2146 2147 2148
          2149 2150 2151 2152 2153 2154
          2155 2156 2157 2158 2159 2160
          2161 2162 2163
        </DataArray>
        <DataArray type="Int32" Name="type" format="ascii" RangeMin="1" RangeMax="1">
          1 1 1 1 1 1
          1 1 1 1 1 1
          1 1 1 1 1 1
          1 1 1 1 1 1
          1 1 1 1 1 1
          1 1 1 1 1 1
          1 1 1 1 1 1
          1 1 1 1 1 1
          1 1 1 1 1 1
          1 1 1 1 1 1
          1 1 1 1 1 1
          1 1 1 1 1 1
          1 1 1 1 1 1
          1 1 1 1 1 1
          1 1 1 1 1 1
          1 1 1 1 1 1
          1 1 1 1 1 1
          1 1 1 1 1 1
          1 1 1 1 1 1
          1 1 1 1 1 1
          1 1 1 1 1 1
          1 1 1 1 1 1
          1 1 1 1 1 1
          1 1 1 1 1 1
          1 1 1 1 1 1
          1 1 1 1 1 1
          1 1 1 1 1 1
          1 1 1 1 1 1
          1 1 1 1 1 1
          1 1 1 1 1 1
          1 1 1 1 1 1
          1 1 1 1 1 1
          1 1 1 1 1 1
          1 1 1 1 1 1
          1 1 1 1 1 1
          1 1 1 1 1 1
          1 1 1 1 1 1
          1 1 1 1 1 1
          1 1 1 1 1 1
          1 1 1 1 1 1
          1 1 1 1 1 1
          1 1 1 1 1 1
          1 1 1 1 1 1
          1 1 1 1 1 1
          1 1 1 1 1 1
          1 1 1 1 1 1
          1 1 1 1 1 1
          1 1 1 1 1 1
          1 1 1 1 1 1
          1 1 1 1 1 1
          1 1 1 1 1 1
          1 1 1 1 1 1
          1 1 1 1 1 1
          1 1 1 1 1 1
          1 1 1 1 1 1
          1 1 1 1 1 1
          1 1 1 1 1 1
          1 1 1 1 1 1
          1 1 1 1 1 1
          1 1 1 1 1 1
          1 1 1 1 1 1
          1 1 1 1 1 1
          1 1 1 1 1 1
          1 1 1 1 1 1
          1 1 1 1 1 1
          1 1 1 1 1 1
          1 1 1 1 1 1
          1 1 1 1 1 1
          1 1 1 1 1 1
          1 1 1 1 1 1
          1 1 1 1 1 1
          1 1 1 1 1 1
          1 1 1 1 1 1
          1 1 1 1 1 1
          1 1 1 1 1 1
          1 1 1 1 1 1
          1 1 1 1 1 1
          1 1 1 1 1 1
          1 1 1 1 1 1
          1 1 1 1 1 1
          1 1 1 1 1 1
          1 1 1 1 1 1
          1 1 1 1 1 1
          1 1 1 1 1 1
          1 1 1 1 1 1
          1 1 1 1 1 1
          1 1 1 1 1 1
          1 1 1 1 1 1
          1 1 1 1 1 1
          1 1 1 1 1 1
          1 1 1 1 1 1
          1 1 1 1 1 1
          1 1 1 1 1 1
          1 1 1 1 1 1
          1 1 1 1 1 1
          1 1 1 1 1 1
          1 1 1 1 1 1
          1 1 1 1 1 1
          1 1 1 1 1 1
          1 1 1 1 1 1
          1 1 1 1 1 1
          1 1 1 1 1 1
          1 1 1 1 1 1
          1 1 1 1 1 1
          1 1 1 1 1 1
          1 1 1 1 1 1
          1 1 1 1 1 1
          1 1 1 1 1 1
          1 1 1 1 1 1
          1 1 1 1 1 1
          1 1 1 1 1 1
          1 1 1 1 1 1
          1 1 1 1 1 1
          1 1 1 1 1 1
          1 1 1 1 1 1
          1 1 1 1 1 1
          1 1 1 1 1 1
          1 1 1 1 1 1
          1 1 1 1 1 1
          1 1 1 1 1 1
          1 1 1 1 1 1
          1 1 1 1 1 1
          1 1 1 1 1 1
          1 1 1 1 1 1
          1 1 1 1 1 1
          1 1 1 1 1 1
          1 1 1 1 1 1
          1 1 1 1 1 1
          1 1 1 1 1 1
          1 1 1 1 1 1
          1 1 1 1 1 1
          1 1 1 1 1 1
          1 1 1 1 1 1
          1 1 1 1 1 1
          1 1 1 1 1 1
          1 1 1 1 1 1
          1 1 1 1 1 1
          1 1 1 1 1 1
          1 1 1 1 1 1
          1 1 1 1 1 1
          1 1 1 1 1 1
          1 1 1 1 1 1
          1 1 1 1 1 1
          1 1 1 1 1 1
          1 1 1 1 1 1
          1 1 1 1 1 1
          1 1 1 1 1 1
          1 1 1 1 1 1
          1 1 1 1 1 1
          1 1 1 1 1 1
          1 1 1 1 1 1
          1 1 1 1 1 1
          1 1 1 1 1 1
          1 1 1 1 1 1
          1 1 1 1 1 1
          1 1 1 1 1 1
          1 1 1 1 1 1
          1 1 1 1 1 1
          1 1 1 1 1 1
          1 1 1 1 1 1
          1 1 1 1 1 1
          1 1 1 1 1 1
          1 1 1 1 1 1
          1 1 1 1 1 1
          1 1 1 1 1 1
          1 1 1 1 1 1
          1 1 1 1 1 1
          1 1 1 1 1 1
          1 1 1 1 1 1
          1 1 1 1 1 1
          1 1 1 1 1 1
          1 1 1 1 1 1
          1 1 1 1 1 1
          1 1 1 1 1 1
          1 1 1 1 1 1
          1 1 1 1 1 1
          1 1 1 1 1 1
          1 1 1 1 1 1
          1 1 1 1 1 1
          1 1 1 1 1 1
          1 1 1 1 1 1
          1 1 1 1 1 1
          1 1 1 1 1 1
          1 1 1 1 1 1
          1 1 1 1 1 1
          1 1 1 1 1 1
          1 1 1 1 1 1
          1 1 1 1 1 1
          1 1 1 1 1 1
          1 1 1 1 1 1
          1 1 1 1 1 1
          1 1 1 1 1 1
          1 1 1 1 1 1
          1 1 1 1 1 1
          1 1 1 1 1 1
          1 1 1 1 1 1
          1 1 1 1 1 1
          1 1 1 1 1 1
          1 1 1 1 1 1
          1 1 1 1 1 1
          1 1 1 1 1 1
          1 1 1 1 1 1
          1 1 1 1 1 1
          1 1 1 1 1 1
          1 1 1 1 1 1
          1 1 1 1 1 1
          1 1 1 1 1 1
          1 1 1 1 1 1
          1 1 1 1 1 1
          1 1 1 1 1 1
          1 1 1 1 1 1
          1 1 1 1 1 1
          1 1 1 1 1 1
          1 1 1 1 1 1
          1 1 1 1 1 1
          1 1 1 1 1 1
          1 1 1 1 1 1
          1 1 1 1 1 1
          1 1 1 1 1 1
          1 1 1 1 1 1
          1 1 1 1 1 1
          1 1 1 1 1 1
          1 1 1 1 1 1
          1 1 1 1 1 1
          1 1 1 1 1 1
          1 1 1 1 1 1
          1 1 1 1 1 1
          1 1 1 1 1 1
          1 1 1 1 1 1
          1 1 1 1 1 1
          1 1 1 1 1 1
          1 1 1 1 1 1
          1 1 1 1 1 1
          1 1 1 1 1 1
          1 1 1 1 1 1
          1 1 1 1 1 1
          1 1 1 1 1 1
          1 1 1 1 1 1
          1 1 1 1 1 1
          1 1 1 1 1 1
          1 1 1 1 1 1
          1 1 1 1 1 1
          1 1 1 1 1 1
          1 1 1 1 1 1
          1 1 1 1 1 1
          1 1 1 1 1 1
          1 1 1 1 1 1
          1 1 1 1 1 1
          1 1 1 1 1 1
          1 1 1 1 1 1
          1 1 1 1 1 1
          1 1 1 1 1 1
          1 1 1 1 1 1
          1 1 1 1 1 1
          1 1 1 1 1 1
          1 1 1 1 1 1
          1 1 1 1 1 1
          1 1 1 1 1 1
          1 1 1 1 1 1
          1 1 1 1 1 1
          1 1 1 1 1 1
          1 1 1 1 1 1
          1 1 1 1 1 1
          1 1 1 1 1 1
          1 1 1 1 1 1
          1 1 1 1 1 1
          1 1 1 1 1 1
          1 1 1 1 1 1
          1 1 1 1 1 1
          1 1 1 1 1 1
          1 1 1 1 1 1
          1 1 1 1 1 1
          1 1 1 1 1 1
          1 1 1 1 1 1
          1 1 1 1 1 1
          1 1 1 1 1 1
          1 1 1 1 1 1
          1 1 1 1 1 1
          1 1 1 1 1 1
          1 1 1 1 1 1
          1 1 1 1 1 1
          1 1 1 1 1 1
          1 1 1 1 1 1
          1 1 1 1 1 1
          1 1 1 1 1 1
          1 1 1 1 1 1
          1 1 1 1 1 1
          1 1 1 1 1 1
          1 1 1 1 1 1
          1 1 1 1 1 1
          1 1 1 1 1 1
          1 1 1 1 1 1
          1 1 1 1 1 1
          1 1 1 1 1 1
          1 1 1 1 1 1
          1 1 1 1 1 1
          1 1 1 1 1 1
          1 1 1 1 1 1
          1 1 1 1 1 1
          1 1 1 1 1 1
          1 1 1 1 1 1
          1 1 1 1 1 1
          1 1 1 1 1 1
          1 1 1 1 1 1
          1 1 1 1 1 1
          1 1 1 1 1 1
          1 1 1 1 1 1
          1 1 1 1 1 1
          1 1 1 1 1 1
          1 1 1 1 1 1
          1 1 1 1 1 1
          1 1 1 1 1 1
          1 1 1 1 1 1
          1 1 1 1 1 1
          1 1 1 1 1 1
          1 1 1 1 1 1
          1 1 1 1 1 1
          1 1 1 1 1 1
          1 1 1 1 1 1
          1 1 1 1 1 1
          1 1 1 1 1 1
          1 1 1 1 1 1
          1 1 1 1 1 1
          1 1 1 1 1 1
          1 1 1 1 1 1
          1 1 1 1 1 1
          1 1 1 1 1 1
          1 1 1 1 1 1
          1 1 1 1 1 1
          1 1 1 1 1 1
          1 1 1 1 1 1
          1 1 1 1 1 1
          1 1 1 1 1 1
          1 1 1 1 1 1
          1 1 1 1 1 1
          1 1 1 1 1 1
          1 1 1 1 1 1
          1 1 1 1 1 1
          1 1 1 1 1 1
          1 1 1 1 1 1
          1 1 1 1 1 1
          1 1 1 1 1 1
          1 1 1 1 1 1
          1 1 1 1 1 1
          1 1 1 1 1 1
          1 1 1 1 1 1
          1 1 1 1 1 1
          1 1 1 1 1 1
          1 1 1 1 1 1
          1 1 1 1 1 1
          1 1 1 1 1 1
          1 1 1 1 1 1
          1 1 1 1 1 1
          1 1 1 1 1 1
          1 1 1 1 1 1
          1 1 1 1 1 1
          1 1 1 1 1 1
          1 1 1 1 1 1
          1 1 1 1 1 1
          1 1 1 1 1 1
          1 1 1
        </DataArray>
        <DataArray type="Float64" Name="diameter" format="ascii" RangeMin="1.0087776286e-06" RangeMax="1.3597632949e-06">
          1.1613296815e-06 1.0307962816e-06 1.0372631053e-06 1.1828153635e-06 1.1856118928e-06 1.1273019738e-06
          1.2013501585e-06 1.1769009813e-06 1.3089621966e-06 1.1223891151e-06 1.3373871143e-06 1.1093440028e-06
          1.2086372667e-06 1.1513808992e-06 1.0369810249e-06 1.1753407883e-06 1.145588879e-06 1.242194516e-06
          1.0888469412e-06 1.2047976214e-06 1.214223288e-06 1.230628392e-06 1.2647064074e-06 1.2823907621e-06
          1.1891978388e-06 1.3114751024e-06 1.315595268e-06 1.2261184393e-06 1.053911101e-06 1.2490015728e-06
          1.3124746581e-06 1.3202809377e-06 1.1813337922e-06 1.1666155724e-06 1.1499489746e-06 1.3291852626e-06
          1.1748470832e-06 1.2566592122e-06 1.2063245775e-06 1.3513643552e-06 1.081023437e-06 1.1988685837e-06
          1.2850258971e-06 1.2034248294e-06 1.2734131404e-06 1.1086152482e-06 1.3073606077e-06 1.1625954644e-06
          1.2393444535e-06 1.0443076907e-06 1.2396942642e-06 1.331701498e-06 1.1991137084e-06 1.1130453576e-06
          1.3040859304e-06 1.1834455225e-06 1.1388660161e-06 1.1600739922e-06 1.1557877577e-06 1.1514787868e-06
          1.2355095897e-06 1.2084094189e-06 1.2316648774e-06 1.1757810947e-06 1.1880214991e-06 1.2208986485e-06
          1.1861119863e-06 1.0234369993e-06 1.2218867594e-06 1.0854237305e-06 1.1646496681e-06 1.1785044385e-06
          1.2375632995e-06 1.2990330119e-06 1.1986087636e-06 1.1577443785e-06 1.294803989e-06 1.2377023675e-06
          1.3478289211e-06 1.1981466279e-06 1.1752403922e-06 1.3525716916e-06 1.2898514811e-06 1.2136764217e-06
          1.2570917063e-06 1.337314266e-06 1.3143951272e-06 1.2627691754e-06 1.0515418931e-06 1.167494977e-06
          1.2024707616e-06 1.3071177073e-06 1.1763710394e-06 1.2076781144e-06 1.1582209859e-06 1.2696688397e-06
          1.2949420999e-06 1.2392338054e-06 1.1617949557e-06 1.245241125e-06 1.3296216824e-06 1.1828434276e-06
          1.1126173631e-06 1.209240155e-06 1.2131647938e-06 1.0755070296e-06 1.2359976509e-06 1.212749822e-06
          1.1437017182e-06 1.2474388644e-06 1.1831854641e-06 1.1999533732e-06 1.2435722687e-06 1.2893152164e-06
          1.2873039489e-06 1.2810106823e-06 1.2448023729e-06 1.2661114304e-06 1.1940911072e-06 1.3248562029e-06
          1.3217010256e-06 1.3219550854e-06 1.2499107396e-06 1.2669621892e-06 1.1210243225e-06 1.0514205411e-06
          1.0602772753e-06 1.3058490231e-06 1.1347888822e-06 1.1312314251e-06 1.2977473598e-06 1.2471713775e-06
          1.3506323661e-06 1.286869964e-06 1.30551184e-06 1.1699686222e-06 1.0645672858e-06 1.2484170667e-06
          1.2241856046e-06 1.2198202415e-06 1.3092017876e-06 1.1252250427e-06 1.2030635633e-06 1.2936638109e-06
          1.3588363531e-06 1.043825844e-06 1.176567373e-06 1.1010864883e-06 1.0369882979e-06 1.3406855722e-06
          1.0994575971e-06 1.0916629327e-06 1.200446794e-06 1.1342808467e-06 1.2020294386e-06 1.086533649e-06
          1.2138821746e-06 1.1127716812e-06 1.2489951143e-06 1.1617000737e-06 1.1075420681e-06 1.1827884892e-06
          1.2126384963e-06 1.1787384568e-06 1.2097960865e-06 1.1411891999e-06 1.1291688349e-06 1.3386599006e-06
          1.125429155e-06 1.2425114782e-06 1.2021318181e-06 1.0297253542e-06 1.1627571304e-06 1.1451689616e-06
          1.2814687558e-06 1.1244885681e-06 1.0725128169e-06 1.3020757764e-06 1.0945632903e-06 1.1458374971e-06
          1.1021055799e-06 1.1635375323e-06 1.0780534253e-06 1.3580947062e-06 1.1418223163e-06 1.2164069351e-06
          1.1975250523e-06 1.330551992e-06 1.2101482219e-06 1.2561620621e-06 1.1472249088e-06 1.1789695739e-06
          1.3597632949e-06 1.2705607022e-06 1.1834656205e-06 1.3463045157e-06 1.2755293032e-06 1.2083628367e-06
          1.2837677535e-06 1.0296394256e-06 1.1660561567e-06 1.133663917e-06 1.1113602837e-06 1.3017789748e-06
          1.3175190359e-06 1.1500049379e-06 1.3370828137e-06 1.3207343087e-06 1.3502082222e-06 1.2882631209e-06
          1.2248225281e-06 1.0604539609e-06 1.2582163105e-06 1.165236686e-06 1.2235658316e-06 1.3000282405e-06
          1.095222602e-06 1.3070438335e-06 1.230500762e-06 1.281295212e-06 1.1744698145e-06 1.1908064462e-06
          1.118648193e-06 1.1930116661e-06 1.1068290068e-06 1.2440873091e-06 1.1686818209e-06 1.033998556e-06
          1.2183686797e-06 1.3108551202e-06 1.2502272017e-06 1.1724544738e-06 1.0739131403e-06 1.260682908e-06
          1.2915396313e-06 1.1558072306e-06 1.311618374e-06 1.259271047e-06 1.3099402606e-06 1.3224024395e-06
          1.1372821766e-06 1.1853164762e-06 1.0917065114e-06 1.2638023546e-06 1.2788423877e-06 1.1376234629e-06
          1.1875734249e-06 1.1973531634e-06 1.2647581145e-06 1.3203123884e-06 1.2636070286e-06 1.2191346206e-06
          1.0483036091e-06 1.2003982671e-06 1.2627429611e-06 1.3101024279e-06 1.206157439e-06 1.1507387597e-06
          1.3488698891e-06 1.2314825745e-06 1.3142322388e-06 1.1773046983e-06 1.1801607995e-06 1.2687374972e-06
          1.2204168215e-06 1.140317988e-06 1.2143262786e-06 1.1481360714e-06 1.3039313624e-06 1.2780574747e-06
          1.2427746946e-06 1.0649715754e-06 1.1882298467e-06 1.2841101943e-06 1.1481576309e-06 1.3289742507e-06
          1.1869447616e-06 1.1358896121e-06 1.2634719419e-06 1.2482217983e-06 1.1253096478e-06 1.1497744239e-06
          1.356783987e-06 1.3001752347e-06 1.2393277424e-06 1.2485420072e-06 1.1875336211e-06 1.2997702372e-06
          1.1375278963e-06 1.1530196823e-06 1.3237781525e-06 1.3213667536e-06 1.0834862473e-06 1.0761200129e-06
          1.1854615735e-06 1.3000633038e-06 1.1127096676e-06 1.3229711548e-06 1.2986752075e-06 1.1985185277e-06
          1.1898266829e-06 1.2538341359e-06 1.3359733973e-06 1.2201030299e-06 1.0929983604e-06 1.2012686452e-06
          1.0589404203e-06 1.0894424788e-06 1.3551840802e-06 1.1945736791e-06 1.1593882512e-06 1.1429332828e-06
          1.1500581101e-06 1.3460465649e-06 1.2882916917e-06 1.2905221149e-06 1.1139057768e-06 1.0599351584e-06
          1.3246265615e-06 1.2376700179e-06 1.3507574317e-06 1.31141325e-06 1.1575062567e-06 1.1807183041e-06
          1.2239818788e-06 1.2996495343e-06 1.2506933521e-06 1.0642296565e-06 1.228944222e-06 1.2254116377e-06
          1.2667001384e-06 1.3440161746e-06 1.229844049e-06 1.0866189402e-06 1.2895740846e-06 1.2054468154e-06
          1.1583457454e-06 1.1923170875e-06 1.1253969413e-06 1.2451528912e-06 1.1481927322e-06 1.2102904096e-06
          1.090591513e-06 1.3201874769e-06 1.0545358398e-06 1.3465069018e-06 1.2827490343e-06 1.1037696787e-06
          1.011993475e-06 1.1623933805e-06 1.2059190071e-06 1.0774431438e-06 1.3326105468e-06 1.1157661927e-06
          1.3181361455e-06 1.2899720537e-06 1.2586695095e-06 1.2547355856e-06 1.3255856337e-06 1.1960843161e-06
          1.3506936794e-06 1.1225369004e-06 1.1509781167e-06 1.1967426618e-06 1.2835993254e-06 1.216846763e-06
          1.2619765531e-06 1.2366683683e-06 1.1893195928e-06 1.2477876272e-06 1.3333508181e-06 1.2143240767e-06
          1.3154561581e-06 1.1983318182e-06 1.2488293838e-06 1.2614916596e-06 1.2596047054e-06 1.1341552396e-06
          1.1421469166e-06 1.2056502652e-06 1.2653511261e-06 1.220595966e-06 1.1718480988e-06 1.19893395e-06
          1.2227154499e-06 1.1976815834e-06 1.2692647608e-06 1.1100511607e-06 1.3126896812e-06 1.3399805368e-06
          1.2437577343e-06 1.3505708444e-06 1.1336785829e-06 1.2871661824e-06 1.1381915493e-06 1.0309903933e-06
          1.3444002848e-06 1.1399751248e-06 1.1645139675e-06 1.2576537752e-06 1.210169531e-06 1.3520255562e-06
          1.1230974975e-06 1.0833042456e-06 1.1163705049e-06 1.191247559e-06 1.2936202469e-06 1.182695226e-06
          1.3538078933e-06 1.1303305288e-06 1.1423421665e-06 1.2488288503e-06 1.2342291155e-06 1.2373927578e-06
          1.2603427765e-06 1.1232014594e-06 1.1886357532e-06 1.2153273361e-06 1.1015605908e-06 1.1988656476e-06
          1.1657998555e-06 1.2310973429e-06 1.1700528816e-06 1.2274141975e-06 1.1943669715e-06 1.1862843496e-06
          1.213226566e-06 1.2761566419e-06 1.3257360764e-06 1.2352266709e-06 1.2377738379e-06 1.2719964817e-06
          1.2818875671e-06 1.338408285e-06 1.2737638399e-06 1.322412296e-06 1.2968499271e-06 1.1952495955e-06