<?xml version="1.0"?>
<VTKFile type="UnstructuredGrid" version="0.1" byte_order="LittleEndian" header_type="UInt32" compressor="vtkZLibDataCompressor">
  <UnstructuredGrid>
    <Piece NumberOfPoints="93" NumberOfCells="93">
      <PointData>
        <DataArray type="Int32" Name="id" format="ascii" RangeMin="1" RangeMax="93">
          8 6 5 11 12 13
          21 22 23 32 33 34
          44 45 46 47 48 49
          57 58 67 68 78 79
          80 81 82 83 9 4
          3 7 14 15 16 17
          24 25 26 30 31 35
          36 37 41 50 51 52
          53 54 59 60 61 62
          63 69 70 71 72 84
          85 86 87 88 89 10
          1 18 19 27 28 38
          39 42 55 56 64 73
          74 75 76 77 90 2
          20 29 40 43 65 66
          91 92 93
        </DataArray>
        <DataArray type="Int32" Name="type" format="ascii" RangeMin="1" RangeMax="1">
          1 1 1 1 1 1
          1 1 1 1 1 1
          1 1 1 1 1 1
          1 1 1 1 1 1
          1 1 1 1 1 1
          1 1 1 1 1 1
          1 1 1 1 1 1
          1 1 1 1 1 1
          1 1 1 1 1 1
          1 1 1 1 1 1
          1 1 1 1 1 1
          1 1 1 1 1 1
          1 1 1 1 1 1
          1 1 1 1 1 1
          1 1 1 1 1 1
          1 1 1
        </DataArray>
        <DataArray type="Float64" Name="diameter" format="ascii" RangeMin="1.0215110881e-06" RangeMax="1.353045147e-06">
          1.1442426751e-06 1.0832946855e-06 1.1824225933e-06 1.295032767e-06 1.1503962472e-06 1.0784083898e-06
          1.0215110881e-06 1.1811924166e-06 1.3511695225e-06 1.2600322629e-06 1.1591915439e-06 1.2310099152e-06
          1.2403115541e-06 1.353045147e-06 1.3472456471e-06 1.3213394392e-06 1.2943104445e-06 1.2593483306e-06
          1.1962575127e-06 1.223124079e-06 1.1758199999e-06 1.2120664701e-06 1.0824056845e-06 1.1300016607e-06
          1.0944374464e-06 1.1009870188e-06 1.1672757566e-06 1.0552133474e-06 1.21817871e-06 1.1277575744e-06
          1.0750751231e-06 1.2808304276e-06 1.1167825397e-06 1.2583869578e-06 1.2391533087e-06 1.2559374116e-06
          1.0544842039e-06 1.3281755345e-06 1.1725332606e-06 1.2415465814e-06 1.3387737227e-06 1.090356936e-06
          1.1451577208e-06 1.2042623629e-06 1.0831779598e-06 1.2702178753e-06 1.3262888674e-06 1.3239148483e-06
          1.3198460203e-06 1.3312980718e-06 1.2737442546e-06 1.2116119823e-06 1.2925802326e-06 1.1948447649e-06
          1.2689787574e-06 1.2284831191e-06 1.1241747707e-06 1.2661610287e-06 1.1389995608e-06 1.0688135762e-06
          1.1417975415e-06 1.1557122002e-06 1.0929855835e-06 1.1259159937e-06 1.0809645093e-06 1.1354132276e-06
          1.3225004006e-06 1.3218913194e-06 1.2121081159e-06 1.3415108741e-06 1.2951302133e-06 1.2165071513e-06
          1.2020449735e-06 1.2142653503e-06 1.3298371301e-06 1.1553416516e-06 1.175927162e-06 1.1862752794e-06
          1.1893020701e-06 1.1606435055e-06 1.100838612e-06 1.1317477315e-06 1.0968656686e-06 1.0475696541e-06
          1.1149234357e-06 1.2443845633e-06 1.2726909844e-06 1.092352303e-06 1.2742033258e-06 1.2201130474e-06
          1.1554968956e-06 1.1216251746e-06 1.193470515e-06
        </DataArray>
      </PointData>
      <CellData>
      </CellData>
      <Points>
        <DataArray type="Float32" Name="Points" NumberOfComponents="3" format="ascii" RangeMin="8.4659505954e-05" RangeMax="0.00025508403303">
          5.2613584558e-05 4.7179044486e-05 5.0043421652e-05 2.8843493055e-05 6.3732397393e-05 5.0553553592e-05
          4.1652710934e-05 7.4087001849e-05 5.1364968385e-05 5.2715477068e-05 4.582123438e-05 4.8606016207e-05
          2.9740618629e-05 6.3637868152e-05 4.9833484809e-05 4.2764626414e-05 7.5469411968e-05 5.017116564e-05
          2.9357237509e-05 6.2738065026e-05 5.0992231991e-05 5.3138053772e-05 4.5081204007e-05 5.0250891945e-05
          4.1810890252e-05 7.4079063779e-05 4.8784953833e-05 5.2509883972e-05 4.7031571739e-05 4.9097241572e-05
          4.09581844e-05 7.4888237577e-05 5.0402006309e-05 2.9857836125e-05 6.2198101659e-05 4.9062589824e-05
          2.9347751479e-05 6.2926723331e-05 4.9477068387e-05 5.3377632867e-05 4.6010623919e-05 4.96145949e-05
          4.2262596253e-05 7.5433017628e-05 4.8957059334e-05 2.9610901038e-05 6.3075916842e-05 5.1785464166e-05
          5.2646959375e-05 4.6180404752e-05 5.0474296586e-05 4.198095121e-05 7.3667302786e-05 4.9676844355e-05
          5.3509978898e-05 4.6852634114e-05 5.0215800002e-05 3.0275068639e-05 6.2369006628e-05 5.0137372455e-05
          4.2412400944e-05 7.3746945418e-05 5.0530361477e-05 4.1978510126e-05 7.4678828241e-05 4.991125752e-05
          5.1827882999e-05 4.7224290029e-05 5.084262375e-05 2.9156512028e-05 6.3983658038e-05 4.9330221373e-05
          3.0727791454e-05 6.3592757215e-05 4.9901384045e-05 4.1677547415e-05 7.573574112e-05 5.0287973863e-05
          2.9361090128e-05 6.2715509557e-05 5.0103993999e-05 5.3708310588e-05 4.5834251068e-05 5.0955044571e-05
          7.4785581091e-05 2.9831651773e-05 5.0792139518e-05 0.00010715083044 5.0538135838e-05 4.9519581808e-05
          0.00013825045608 6.1249906139e-05 5.0295973779e-05 0.00010161881801 7.5366508099e-05 4.9550184485e-05
          7.6725256804e-05 2.8644853955e-05 4.9277412472e-05 0.00010841256153 5.1241331676e-05 5.0244743761e-05
          0.00013799876615 6.2181308749e-05 5.0786762586e-05 9.9982855318e-05 7.6101641753e-05 5.0691745855e-05
          0.00010702178406 5.2329698519e-05 5.0746552006e-05 7.559399819e-05 2.7716589102e-05 4.9292164476e-05
          0.00013910797134 6.2261955463e-05 4.8972753575e-05 0.00010121930245 7.6032003562e-05 4.8801517551e-05
          0.00010031844431 7.5092546467e-05 5.1080809499e-05 7.5362084317e-05 2.8782063964e-05 4.9248075811e-05
          0.00013897802273 6.1830600316e-05 5.0596921938e-05 0.00010779279546 5.1615414122e-05 4.8906185839e-05
          0.00013886237866 6.208709965e-05 4.9832920922e-05 0.00010721259605 5.2136449085e-05 4.9651735026e-05
          7.6509335486e-05 2.8950649721e-05 5.0488306442e-05 0.00010817126895 5.1491795602e-05 5.1539998822e-05
          7.6123054896e-05 2.7808782761e-05 5.0381189794e-05 0.0001011360655 7.4527786637e-05 5.0053855375e-05
          7.5842544902e-05 2.9726821595e-05 5.0224050938e-05 0.00010068597476 7.5550793554e-05 5.0219434343e-05
          0.00013809428492 6.2336861447e-05 4.9562044296e-05 0.00010141951498 7.6149975939e-05 5.0747505156e-05
          0.00010001495684 7.6088035712e-05 4.8990696087e-05 0.00013826591021 6.1298866058e-05 4.9183850933e-05
          0.00010881999333 5.2049745136e-05 5.0754413678e-05 0.0001385689975 6.1148290115e-05 5.1430659369e-05
          0.00010888463294 5.1159047871e-05 4.9051788665e-05 0.00010805603961 5.0970116718e-05 4.9642196245e-05
          7.6014228398e-05 2.9558030292e-05 4.9278685765e-05 0.00010743925668 5.1332037401e-05 5.0654685765e-05
          0.00013859056344 6.2233339122e-05 4.7957888455e-05 7.5517200457e-05 2.8627786378e-05 5.0366907089e-05
          0.00013967815903 6.1585604271e-05 4.9301161198e-05 0.00022034310678 6.1126833316e-05 4.9033413234e-05
          0.00021769764135 7.8617915278e-05 5.1372844609e-05 0.000221358423 6.0012622271e-05 4.9625607062e-05
          0.00021896533144 7.8983190178e-05 5.0544033002e-05 0.00021768566512 7.9364668636e-05 5.0493734307e-05
          0.00022140647343 6.0663456679e-05 5.066308222e-05 0.0002203151671 6.1147991801e-05 5.0456696044e-05
          0.000218771238 7.7400247392e-05 4.9577447498e-05 0.00021814163483 7.900789933e-05 4.8569909268e-05
          0.00022117573826 6.0543177824e-05 4.8533100198e-05 0.00022053616703 5.9677651734e-05 5.0201604608e-05
          0.00021816939989 7.7899778262e-05 5.0592283515e-05 0.00022112422448 6.1377904785e-05 4.9746791774e-05
          0.00021906135953 7.8795739682e-05 4.9300717365e-05 0.00022081332281 6.113096606e-05 5.1501978305e-05
          0.00021807686426 7.8284807387e-05 4.9514779676e-05 0.00021825675503 7.9232246208e-05 4.9675993068e-05
          0.00022141011141 5.9310092183e-05 5.0946891861e-05 0.00024719064822 2.6777939638e-05 5.1079008699e-05
          0.00024751684396 2.5795368856e-05 5.031596811e-05 0.00024859694531 2.5932844437e-05 4.871449346e-05
          0.00024803326232 2.8100776035e-05 4.9680431403e-05 0.00024802447297 2.643989319e-05 5.102598152e-05
          0.00024879007833 2.6036414056e-05 4.9934616982e-05 0.00024772054167 2.7044410672e-05 4.9323174608e-05
          0.00024793008924 2.6729543606e-05 5.0176175137e-05 0.00024736573687 2.6173198421e-05 4.9395588576e-05
          0.00024778168881 2.5270257538e-05 5.0961116358e-05
        </DataArray>
      </Points>
      <Cells>
        <DataArray type="Int64" Name="connectivity" format="ascii" RangeMin="0" RangeMax="92">
          0 1 2 3 4 5
          6 7 8 9 10 11
          12 13 14 15 16 17
          18 19 20 21 22 23
          24 25 26 27 28 29
          30 31 32 33 34 35
          36 37 38 39 40 41
          42 43 44 45 46 47
          48 49 50 51 52 53
          54 55 56 57 58 59
          60 61 62 63 64 65
          66 67 68 69 70 71
          72 73 74 75 76 77
          78 79 80 81 82 83
          84 85 86 87 88 89
          90 91 92
        </DataArray>
        <DataArray type="Int64" Name="offsets" format="ascii" RangeMin="1" RangeMax="93">
          1 2 3 4 5 6
          7 8 9 10 11 12
          13 14 15 16 17 18
          19 20 21 22 23 24
          25 26 27 28 29 30
          31 32 33 34 35 36
          37 38 39 40 41 42
          43 44 45 46 47 48
          49 50 51 52 53 54
          55 56 57 58 59 60
          61 62 63 64 65 66
          67 68 69 70 71 72
          73 74 75 76 77 78
          79 80 81 82 83 84
          85 86 87 88 89 90
          91 92 93
        </DataArray>
        <DataArray type="UInt8" Name="types" format="ascii" RangeMin="1" RangeMax="1">
          1 1 1 1 1 1
          1 1 1 1 1 1
          1 1 1 1 1 1
          1 1 1 1 1 1
          1 1 1 1 1 1
          1 1 1 1 1 1
          1 1 1 1 1 1
          1 1 1 1 1 1
          1 1 1 1 1 1
          1 1 1 1 1 1
          1 1 1 1 1 1
          1 1 1 1 1 1
          1 1 1 1 1 1
          1 1 1 1 1 1
          1 1 1 1 1 1
          1 1 1
        </DataArray>
      </Cells>
    </Piece>
  </UnstructuredGrid>
</VTKFile>
