<?xml version="1.0"?>
<VTKFile type="UnstructuredGrid" version="0.1" byte_order="LittleEndian" header_type="UInt32" compressor="vtkZLibDataCompressor">
  <UnstructuredGrid>
    <Piece NumberOfPoints="678" NumberOfCells="678">
      <PointData>
        <DataArray type="Int32" Name="id" format="ascii" RangeMin="1" RangeMax="678">
          8 6 5 11 12 13
          21 22 23 32 33 34
          44 45 46 47 48 49
          57 58 67 68 78 79
          80 81 82 83 94 95
          96 97 98 99 113 114
          115 116 117 118 138 139
          140 141 142 143 144 145
          160 161 162 163 164 165
          166 167 168 189 190 191
          192 193 194 195 196 229
          230 231 232 233 234 235
          236 237 238 239 240 241
          242 243 274 275 276 277
          278 279 280 281 282 283
          284 285 286 287 313 314
          315 316 317 318 319 320
          321 322 323 324 371 372
          373 374 375 376 377 378
          379 380 381 382 383 384
          385 386 447 448 449 450
          451 452 453 454 455 456
          457 458 459 460 461 462
          463 464 465 466 467 510
          511 512 513 514 515 516
          517 518 519 520 521 522
          523 524 525 526 527 528
          529 530 531 580 581 582
          583 584 585 586 587 588
          589 590 591 592 593 594
          595 596 597 598 599 600
          601 602 603 604 605 606
          607 608 609 610 9 4
          3 7 14 15 16 17
          24 25 26 30 31 35
          36 37 41 50 51 52
          53 54 59 60 61 62
          63 69 70 71 72 84
          85 86 87 88 89 100
          101 102 103 104 105 106
          107 119 120 121 122 123
          124 125 126 127 128 129
          130 146 147 148 149 150
          151 169 170 171 172 173
          174 175 176 177 178 179
          197 198 199 200 201 202
          203 204 205 206 207 208
          209 210 211 212 213 214
          215 216 244 245 246 247
          248 249 250 251 252 253
          254 255 256 257 258 259
          260 261 288 289 290 291
          292 293 294 295 296 297
          298 299 300 301 325 326
          327 328 329 330 331 332
          333 334 335 336 337 338
          339 340 341 342 343 344
          345 346 347 387 388 389
          390 391 392 393 394 395
          396 397 398 399 400 401
          402 403 404 405 406 407
          408 409 410 411 412 413
          414 415 416 417 418 419
          420 421 422 423 468 469
          470 471 472 473 474 475
          476 477 478 479 480 481
          482 483 484 485 486 487
          488 489 490 491 492 493
          494 495 496 532 533 534
          535 536 537 538 539 540
          541 542 543 544 545 546
          547 548 549 550 551 552
          553 554 555 556 557 558
          559 611 612 613 614 615
          616 617 618 619 620 621
          622 623 624 625 626 627
          628 629 630 631 632 633
          634 635 636 637 638 639
          640 641 642 643 644 645
          10 1 18 19 27 28
          38 39 42 55 56 64
          73 74 75 76 77 90
          108 109 110 111 112 131
          132 133 152 153 154 155
          156 157 180 181 182 183
          184 185 217 218 219 220
          221 222 223 224 262 263
          264 265 266 267 268 302
          303 304 305 306 307 308
          348 349 350 351 352 353
          354 355 356 357 358 359
          360 361 362 363 424 425
          426 427 428 429 430 431
          432 433 434 435 436 437
          497 498 499 500 501 502
          503 560 561 562 563 564
          565 566 567 568 569 570
          571 572 573 574 646 647
          648 649 650 651 652 653
          654 655 656 657 658 659
          660 661 662 663 664 665
          666 2 20 29 40 43
          65 66 91 92 93 134
          135 136 137 158 159 186
          187 188 225 226 227 228
          269 270 271 272 273 309
          310 311 312 364 365 366
          367 368 369 370 438 439
          440 441 442 443 444 445
          446 504 505 506 507 508
          509 575 576 577 578 579
          667 668 669 670 671 672
          673 674 675 676 677 678
        </DataArray>
        <DataArray type="Int32" Name="type" format="ascii" RangeMin="1" RangeMax="1">
          1 1 1 1 1 1
          1 1 1 1 1 1
          1 1 1 1 1 1
          1 1 1 1 1 1
          1 1 1 1 1 1
          1 1 1 1 1 1
          1 1 1 1 1 1
          1 1 1 1 1 1
          1 1 1 1 1 1
          1 1 1 1 1 1
          1 1 1 1 1 1
          1 1 1 1 1 1
          1 1 1 1 1 1
          1 1 1 1 1 1
          1 1 1 1 1 1
          1 1 1 1 1 1
          1 1 1 1 1 1
          1 1 1 1 1 1
          1 1 1 1 1 1
          1 1 1 1 1 1
          1 1 1 1 1 1
          1 1 1 1 1 1
          1 1 1 1 1 1
          1 1 1 1 1 1
          1 1 1 1 1 1
          1 1 1 1 1 1
          1 1 1 1 1 1
          1 1 1 1 1 1
          1 1 1 1 1 1
          1 1 1 1 1 1
          1 1 1 1 1 1
          1 1 1 1 1 1
          1 1 1 1 1 1
          1 1 1 1 1 1
          1 1 1 1 1 1
          1 1 1 1 1 1
          1 1 1 1 1 1
          1 1 1 1 1 1
          1 1 1 1 1 1
          1 1 1 1 1 1
          1 1 1 1 1 1
          1 1 1 1 1 1
          1 1 1 1 1 1
          1 1 1 1 1 1
          1 1 1 1 1 1
          1 1 1 1 1 1
          1 1 1 1 1 1
          1 1 1 1 1 1
          1 1 1 1 1 1
          1 1 1 1 1 1
          1 1 1 1 1 1
          1 1 1 1 1 1
          1 1 1 1 1 1
          1 1 1 1 1 1
          1 1 1 1 1 1
          1 1 1 1 1 1
          1 1 1 1 1 1
          1 1 1 1 1 1
          1 1 1 1 1 1
          1 1 1 1 1 1
          1 1 1 1 1 1
          1 1 1 1 1 1
          1 1 1 1 1 1
          1 1 1 1 1 1
          1 1 1 1 1 1
          1 1 1 1 1 1
          1 1 1 1 1 1
          1 1 1 1 1 1
          1 1 1 1 1 1
          1 1 1 1 1 1
          1 1 1 1 1 1
          1 1 1 1 1 1
          1 1 1 1 1 1
          1 1 1 1 1 1
          1 1 1 1 1 1
          1 1 1 1 1 1
          1 1 1 1 1 1
          1 1 1 1 1 1
          1 1 1 1 1 1
          1 1 1 1 1 1
          1 1 1 1 1 1
          1 1 1 1 1 1
          1 1 1 1 1 1
          1 1 1 1 1 1
          1 1 1 1 1 1
          1 1 1 1 1 1
          1 1 1 1 1 1
          1 1 1 1 1 1
          1 1 1 1 1 1
          1 1 1 1 1 1
          1 1 1 1 1 1
          1 1 1 1 1 1
          1 1 1 1 1 1
          1 1 1 1 1 1
          1 1 1 1 1 1
          1 1 1 1 1 1
          1 1 1 1 1 1
          1 1 1 1 1 1
          1 1 1 1 1 1
          1 1 1 1 1 1
          1 1 1 1 1 1
          1 1 1 1 1 1
          1 1 1 1 1 1
          1 1 1 1 1 1
          1 1 1 1 1 1
          1 1 1 1 1 1
          1 1 1 1 1 1
          1 1 1 1 1 1
          1 1 1 1 1 1
          1 1 1 1 1 1
          1 1 1 1 1 1
          1 1 1 1 1 1
          1 1 1 1 1 1
        </DataArray>
        <DataArray type="Float64" Name="diameter" format="ascii" RangeMin="1.0078796866e-06" RangeMax="1.3599652843e-06">
          1.3502278688e-06 1.1010167049e-06 1.0428417932e-06 1.2046468922e-06 1.0534577364e-06 1.2470031595e-06
          1.1918168247e-06 1.2923837022e-06 1.3345671166e-06 1.178279647e-06 1.3096993266e-06 1.1978191172e-06
          1.184976163e-06 1.177168966e-06 1.1139077723e-06 1.2406910776e-06 1.1705331592e-06 1.2183328662e-06
          1.0471491108e-06 1.0955907861e-06 1.1876747206e-06 1.0922549869e-06 1.3268691729e-06 1.3385753983e-06
          1.291929396e-06 1.3473870006e-06 1.2045743212e-06 1.21151901e-06 1.3394397567e-06 1.1779284202e-06
          1.3418768965e-06 1.3282528535e-06 1.1415348567e-06 1.2088855008e-06 1.2317466993e-06 1.2112242675e-06
          1.357700714e-06 1.2189428172e-06 1.1857787911e-06 1.0367957375e-06 1.0632503986e-06 1.1058391561e-06
          1.0790073766e-06 1.2002497059e-06 1.1129069008e-06 1.0918126837e-06 1.2434954071e-06 1.0552143811e-06
          1.2684031151e-06 1.3117785305e-06 1.1682407871e-06 1.1371453162e-06 1.2787852123e-06 1.2935032643e-06
          1.3079517026e-06 1.3206384274e-06 1.2354553657e-06 1.1288384187e-06 1.128889173e-06 1.3304477801e-06
          1.2342220227e-06 1.2116971877e-06 1.2030739491e-06 1.1761889697e-06 1.1637501887e-06 1.1430280104e-06
          1.2922220988e-06 1.0558526462e-06 1.2111833244e-06 1.2672894988e-06 1.1688613373e-06 1.18742271e-06
          1.1151997013e-06 1.184768783e-06 1.1991705755e-06 1.1331571049e-06 1.2367130903e-06 1.1352630978e-06
          1.148093601e-06 1.219526486e-06 1.1649317481e-06 1.3350628622e-06 1.1628638202e-06 1.1366121764e-06
          1.1010373077e-06 1.2972720606e-06 1.3543798092e-06 1.1570481488e-06 1.1341688908e-06 1.1107154275e-06
          1.1441976925e-06 1.3424623455e-06 1.0253330769e-06 1.3363317527e-06 1.0782674401e-06 1.2663764642e-06
          1.1621261649e-06 1.2615100228e-06 1.2951113447e-06 1.2896630743e-06 1.3272620157e-06 1.3484408243e-06
          1.1609146734e-06 1.0394958879e-06 1.0850768604e-06 1.149077116e-06 1.2451767128e-06 1.2381884785e-06
          1.3425312173e-06 1.2128400422e-06 1.1303449504e-06 1.1722523888e-06 1.1960664489e-06 1.2985457841e-06
          1.2801303229e-06 1.2435157232e-06 1.0690243119e-06 1.3397834094e-06 1.2138818446e-06 1.2259721764e-06
          1.0599773087e-06 1.3210874123e-06 1.2807686977e-06 1.2638289604e-06 1.2184596695e-06 1.2927425222e-06
          1.1887827293e-06 1.3024563425e-06 1.2455045846e-06 1.1531306559e-06 1.1959177288e-06 1.254185856e-06
          1.2135667596e-06 1.2193760731e-06 1.1310040474e-06 1.2140868656e-06 1.2592430497e-06 1.2369743734e-06
          1.1392616156e-06 1.1638177985e-06 1.304817007e-06 1.2028808162e-06 1.132035115e-06 1.2011507735e-06
          1.1336544522e-06 1.0707634262e-06 1.1080414165e-06 1.0867379347e-06 1.2385293615e-06 1.0673431865e-06
          1.0890948597e-06 1.0831460654e-06 1.1564821599e-06 1.1097747044e-06 1.1831374567e-06 1.2295755482e-06
          1.1288580526e-06 1.0899640323e-06 1.1583860516e-06 1.1094734593e-06 1.0903060596e-06 1.1314204486e-06
          1.1710492464e-06 1.1360934591e-06 1.2023304873e-06 1.0738619628e-06 1.16552425e-06 1.1639023392e-06
          1.057574664e-06 1.1193092984e-06 1.1251717153e-06 1.0487189757e-06 1.1417185025e-06 1.1578747912e-06
          1.1170093596e-06 1.1108054255e-06 1.1255180923e-06 1.1134075175e-06 1.0303052945e-06 1.1205854275e-06
          1.1205351208e-06 1.0975908686e-06 1.0645324854e-06 1.034491422e-06 1.044956519e-06 1.1058577916e-06
          1.0918643428e-06 1.1417028878e-06 1.0691172871e-06 1.1040004502e-06 1.1180014518e-06 1.0758786852e-06
          1.0432395844e-06 1.0464568788e-06 1.0974220859e-06 1.1009724365e-06 1.2106361057e-06 1.0921114725e-06
          1.2021323231e-06 1.1691922649e-06 1.349247299e-06 1.3471192334e-06 1.1478465984e-06 1.2628278262e-06
          1.176032394e-06 1.2835257442e-06 1.120637198e-06 1.1093003833e-06 1.3158883761e-06 1.3548609778e-06
          1.025873673e-06 1.275643641e-06 1.2905718576e-06 1.2774973832e-06 1.3156373403e-06 1.2794122478e-06
          1.2128498505e-06 1.2912120234e-06 1.256082712e-06 1.0940445799e-06 1.2491193317e-06 1.1909366143e-06
          1.3102451991e-06 1.1644569959e-06 1.1348185892e-06 1.1918474947e-06 1.1224247934e-06 1.3116569193e-06
          1.1923380246e-06 1.2262733564e-06 1.1835063235e-06 1.2618485914e-06 1.2517029695e-06 1.1753790967e-06
          1.0406590459e-06 1.3438724205e-06 1.1198799664e-06 1.2934274772e-06 1.0982407308e-06 1.2194011736e-06
          1.2890098315e-06 1.3355789388e-06 1.3064246198e-06 1.331558203e-06 1.3370890763e-06 1.2673933015e-06
          1.2202513136e-06 1.1773444117e-06 1.3450157509e-06 1.2903881926e-06 1.2910628726e-06 1.1033220008e-06
          1.2555066262e-06 1.3152785003e-06 1.1304161078e-06 1.0253091351e-06 1.1864265367e-06 1.1962178599e-06
          1.1561292578e-06 1.2705171397e-06 1.0844696917e-06 1.2338225536e-06 1.2717631464e-06 1.3459365439e-06
          1.1635215048e-06 1.3266750131e-06 1.1885884967e-06 1.2442377122e-06 1.3559788193e-06 1.2747027542e-06
          1.2972867029e-06 1.2043623848e-06 1.2537352593e-06 1.3534935579e-06 1.2321039633e-06 1.2627053969e-06
          1.122766906e-06 1.0714825904e-06 1.225062475e-06 1.3091514493e-06 1.2270936672e-06 1.1682249978e-06
          1.160513992e-06 1.3167621577e-06 1.0674295516e-06 1.2097768182e-06 1.2853058423e-06 1.2381515321e-06
          1.2941910265e-06 1.212167115e-06 1.1636538069e-06 1.3368666495e-06 1.2243993898e-06 1.3319336045e-06
          1.0873538933e-06 1.2968610588e-06 1.1718841239e-06 1.1509533584e-06 1.3307349603e-06 1.1279826897e-06
          1.3464401357e-06 1.1903192347e-06 1.3244070442e-06 1.0775608149e-06 1.3237761851e-06 1.2170175396e-06
          1.1684995483e-06 1.1198562357e-06 1.3295870378e-06 1.0711445386e-06 1.0740868332e-06 1.1817198025e-06
          1.1639475951e-06 1.2146067866e-06 1.067620478e-06 1.0945717215e-06 1.1928223432e-06 1.205763344e-06
          1.1618446501e-06 1.1759963773e-06 1.1719559406e-06 1.1070786785e-06 1.039944447e-06 1.0319350796e-06
          1.3528880368e-06 1.0976637657e-06 1.3326121613e-06 1.3016068228e-06 1.1160804142e-06 1.3270239595e-06
          1.1956747417e-06 1.3214581499e-06 1.0266447406e-06 1.151252819e-06 1.1027112205e-06 1.2651348947e-06
          1.0677966964e-06 1.1920274899e-06 1.1731550832e-06 1.3063216729e-06 1.0949699573e-06 1.3325649967e-06
          1.2884604505e-06 1.2773946817e-06 1.2897920423e-06 1.3217334134e-06 1.2273640997e-06 1.2666769956e-06
          1.1767427018e-06 1.3360016463e-06 1.2164644018e-06 1.3414781885e-06 1.1667668887e-06 1.3146397878e-06
          1.1832133087e-06 1.269139869e-06 1.2176298385e-06 1.185787419e-06 1.2792156516e-06 1.0078796866e-06
          1.2726057682e-06 1.353260465e-06 1.2403972278e-06 1.3364171585e-06 1.177243062e-06 1.1720962692e-06
          1.2873563107e-06 1.2915184359e-06 1.2540628729e-06 1.3436437813e-06 1.3521328413e-06 1.2682084296e-06
          1.3112351301e-06 1.3071677685e-06 1.2892748747e-06 1.2437597104e-06 1.2839464652e-06 1.2927736807e-06
          1.2925044686e-06 1.2193057912e-06 1.2254670498e-06 1.2202307662e-06 1.2053414737e-06 1.1992651996e-06
          1.247823516e-06 1.1806658096e-06 1.2298017419e-06 1.2816389249e-06 1.2344116604e-06 1.1340672564e-06
          1.2164311986e-06 1.2131778825e-06 1.2665620953e-06 1.1358158271e-06 1.1806251706e-06 1.2611639342e-06
          1.2739795389e-06 1.157051377e-06 1.298635828e-06 1.224907381e-06 1.1461879849e-06 1.1934865231e-06
          1.2014805321e-06 1.1912110622e-06 1.2117852707e-06 1.180823111e-06 1.2415385489e-06 1.1766638365e-06
          1.2856300801e-06 1.2748815443e-06 1.2128499731e-06 1.2542584006e-06 1.1312102063e-06 1.2306679987e-06
          1.1582777701e-06 1.2258428214e-06 1.2005605346e-06 1.1374649716e-06 1.1027695388e-06 1.1383959627e-06
          1.0853365864e-06 1.0673316453e-06 1.225552646e-06 1.1263536464e-06 1.2237581703e-06 1.1499795186e-06
          1.1283605183e-06 1.2096237403e-06 1.2138231222e-06 1.2009722999e-06 1.1116879808e-06 1.1420037312e-06
          1.2151005015e-06 1.2054807144e-06 1.0578208905e-06 1.1438098288e-06 1.1674887284e-06 1.1912475497e-06
          1.1513410789e-06 1.0395138296e-06 1.1422937302e-06 1.0753717583e-06 1.0452254981e-06 1.0653297209e-06
          1.117426203e-06 1.0833868379e-06 1.1736216816e-06 1.0767386006e-06 1.035318988e-06 1.1707384355e-06
          1.0530604075e-06 1.0909225304e-06 1.1090979924e-06 1.0592773127e-06 1.1348980185e-06 1.1544713156e-06
          1.0969354685e-06 1.1276140984e-06 1.1447975212e-06 1.0619404516e-06 1.1394341448e-06 1.1255437407e-06
          1.1001417131e-06 1.0586947657e-06 1.0474422724e-06 1.1423420777e-06 1.1345472062e-06 1.0929050088e-06
          1.0541835436e-06 1.0595795824e-06 1.1467587792e-06 1.0513211222e-06 1.1481469843e-06 1.0512623973e-06
          1.1151312671e-06 1.2763984914e-06 1.2268450386e-06 1.1652815629e-06 1.183744075e-06 1.2359390688e-06
          1.1523440402e-06 1.1333433394e-06 1.3577660709e-06 1.2640924032e-06 1.1222967731e-06 1.1973915132e-06
          1.1373406757e-06 1.1198928178e-06 1.2996012843e-06 1.2332913872e-06 1.1026645394e-06 1.0999478607e-06
          1.2877577441e-06 1.3166938992e-06 1.2620010323e-06 1.3524213321e-06 1.3231563158e-06 1.0768897922e-06
          1.1705381544e-06 1.1857947747e-06 1.311291612e-06 1.1801479899e-06 1.2718795411e-06 1.3338759119e-06
          1.1991047544e-06 1.2141725976e-06 1.0417152154e-06 1.3067948425e-06 1.0868910838e-06 1.0680799326e-06
          1.2920759136e-06 1.305046942e-06 1.2675195057e-06 1.0751463763e-06 1.301628638e-06 1.236158904e-06
          1.2766170904e-06 1.0831375805e-06 1.317214481e-06 1.1122892476e-06 1.2156282596e-06 1.133742683e-06
          1.1561259802e-06 1.0545514075e-06 1.2871872419e-06 1.3174603142e-06 1.1774760293e-06 1.2245263187e-06
          1.1136807272e-06 1.3178648784e-06 1.1184914142e-06 1.0911857659e-06 1.2196346396e-06 1.3337783657e-06
          1.2897157861e-06 1.3250176037e-06 1.0661986739e-06 1.3175299023e-06 1.1192689035e-06 1.1028037954e-06
          1.2785599446e-06 1.3430480441e-06 1.0730208457e-06 1.1087550205e-06 1.3184266662e-06 1.3364168946e-06
          1.3284297481e-06 1.2891032248e-06 1.1910027927e-06 1.3546632598e-06 1.1969496508e-06 1.2749745806e-06
          1.3212404447e-06 1.3069361305e-06 1.2385688053e-06 1.3143320511e-06 1.2281996977e-06 1.2495687082e-06
          1.2508360568e-06 1.2753869598e-06 1.2983061661e-06 1.2865058398e-06 1.0446699993e-06 1.274024667e-06
          1.1617641988e-06 1.1920547889e-06 1.105203052e-06 1.2647552166e-06 1.1512846098e-06 1.2351963469e-06
          1.216723825e-06 1.1523021668e-06 1.1229990875e-06 1.1099910699e-06 1.2080309936e-06 1.2188670514e-06
          1.206803917e-06 1.153106316e-06 1.2123611739e-06 1.0865019704e-06 1.147953682e-06 1.1788352319e-06
          1.1022479445e-06 1.2282710219e-06 1.0654625797e-06 1.1172474159e-06 1.1416315432e-06 1.1426637351e-06
          1.0766144669e-06 1.1479323034e-06 1.1678277641e-06 1.0868219287e-06 1.0874749248e-06 1.1560298832e-06
          1.1330308747e-06 1.1355720528e-06 1.1401090325e-06 1.1018019661e-06 1.2068790143e-06 1.1287980265e-06
          1.150153922e-06 1.1020030462e-06 1.0588382545e-06 1.11223326e-06 1.1519607796e-06 1.0745463023e-06
          1.1284062527e-06 1.174899653e-06 1.2092307887e-06 1.1076724232e-06 1.3181875813e-06 1.321432882e-06
          1.2385625903e-06 1.159053679e-06 1.1601996639e-06 1.0652707664e-06 1.1307081302e-06 1.1576564319e-06
          1.1215229681e-06 1.2343961619e-06 1.1179165846e-06 1.3439864264e-06 1.1413505012e-06 1.3137420808e-06
          1.3530686154e-06 1.3485625884e-06 1.2620591211e-06 1.2708620825e-06 1.2652076335e-06 1.3543528809e-06
          1.2793138851e-06 1.2988136272e-06 1.0794637412e-06 1.2697080411e-06 1.2035538717e-06 1.3599652843e-06
          1.2159981604e-06 1.1842081059e-06 1.1360160645e-06 1.0699160648e-06 1.0348990762e-06 1.3451213796e-06
          1.0852659589e-06 1.3413500494e-06 1.0962984704e-06 1.1774893208e-06 1.3213357345e-06 1.317427528e-06
          1.3084496963e-06 1.3537780647e-06 1.3115370534e-06 1.2349894247e-06 1.2840217278e-06 1.352020909e-06
          1.2471871917e-06 1.1430932089e-06 1.2520195026e-06 1.297319381e-06 1.2276629856e-06 1.2034306301e-06
          1.2283805497e-06 1.0586863235e-06 1.1570463096e-06 1.1077239439e-06 1.2484563533e-06 1.1050748476e-06
          1.0521566569e-06 1.0913895572e-06 1.1199052444e-06 1.0670943812e-06 1.083556701e-06 1.1384110624e-06
          1.0240843634e-06 1.0958269427e-06 1.1419245842e-06 1.0786285352e-06 1.1060566589e-06 1.0829036997e-06
        </DataArray>
      </PointData>
      <CellData>
      </CellData>
      <Points>
        <DataArray type="Float32" Name="Points" NumberOfComponents="3" format="ascii" RangeMin="8.3546529842e-05" RangeMax="0.00025655555615">
          5.2603110817e-05 4.8530884669e-05 5.0743277825e-05 2.8442220355e-05 6.4001265855e-05 5.1650273235e-05
          4.2132036469e-05 7.4493364082e-05 5.2218900237e-05 5.230924944e-05 4.6064080379e-05 4.7822486522e-05
          3.0135206543e-05 6.5283551521e-05 4.8697376769e-05 4.2908071919e-05 7.5072377513e-05 5.0163460401e-05
          2.844649498e-05 6.2880884798e-05 5.2124261856e-05 5.366757614e-05 4.4359065214e-05 4.9709888117e-05
          4.010975681e-05 7.4521907663e-05 4.9685288104e-05 5.1416769566e-05 4.7138684749e-05 4.8668585805e-05
          4.0244547563e-05 7.55737492e-05 5.0017370086e-05 3.0514745958e-05 6.0774607846e-05 4.8596790293e-05
          3.0762199458e-05 6.3136139943e-05 4.8291400162e-05 5.3228901379e-05 4.5259650506e-05 4.8452042392e-05
          4.3541051127e-05 7.5816948083e-05 4.7932207963e-05 2.9144830478e-05 6.3623607275e-05 5.2093218983e-05
          5.2276842325e-05 4.6585133532e-05 5.2318973758e-05 4.2474392103e-05 7.3773662734e-05 4.8944777518e-05
          5.382679592e-05 4.7173849453e-05 5.1505634474e-05 3.1034604035e-05 6.2440623879e-05 4.9037917051e-05
          4.2683459469e-05 7.2825961979e-05 5.0868089602e-05 4.1956041969e-05 7.5527066656e-05 4.9528549425e-05
          5.203163164e-05 4.7773890401e-05 5.1824761613e-05 2.8880684113e-05 6.4399457187e-05 4.8108471674e-05
          3.1107305404e-05 6.4396153903e-05 4.9689060688e-05 4.1728941142e-05 7.5658768765e-05 5.0269507483e-05
          2.8833668694e-05 6.1779443058e-05 5.0958347856e-05 5.4579060816e-05 4.5433804189e-05 5.0970640586e-05
          5.2108378441e-05 4.5115099056e-05 4.7683854064e-05 4.2906660383e-05 7.4574032624e-05 4.8345482355e-05
          5.4963376897e-05 4.7301124141e-05 5.0008744438e-05 4.1078852519e-05 7.655940135e-05 4.9292470067e-05
          3.0725823308e-05 6.1730366724e-05 5.2375849918e-05 5.2091909311e-05 4.6046239731e-05 4.9662779929e-05
          5.1249247917e-05 4.6584951633e-05 4.9682515964e-05 3.1419000152e-05 6.1518483562e-05 4.9723068514e-05
          2.9067050491e-05 6.1877290136e-05 4.8467736633e-05 4.0625651309e-05 7.2977294622e-05 4.9322890845e-05
          3.0134628105e-05 6.1317514337e-05 5.1262926718e-05 4.2140422011e-05 7.4312090874e-05 4.9824822781e-05
          5.2902272728e-05 4.8730114941e-05 4.9153895816e-05 4.0981765778e-05 7.3343253462e-05 5.0316211855e-05
          3.0421479096e-05 6.4902633312e-05 5.0886035751e-05 5.2306822909e-05 4.4415348384e-05 5.0802336773e-05
          4.0739603719e-05 7.4975592725e-05 5.1023500419e-05 5.4453561461e-05 4.7296947741e-05 4.8713958677e-05
          4.342037937e-05 7.4071824201e-05 5.1147122576e-05 2.9084192647e-05 6.2180144596e-05 4.9453497923e-05
          2.8860975362e-05 6.3492538175e-05 4.9666839914e-05 4.109130532e-05 7.4788556958e-05 4.7493911552e-05
          5.3330510127e-05 4.5869215683e-05 5.0434551667e-05 5.0558825023e-05 4.6798995754e-05 5.063934077e-05
          2.8374495741e-05 6.4865263994e-05 4.9429392675e-05 2.9777540476e-05 6.3045772549e-05 5.0293623644e-05
          4.1299939767e-05 7.6281794463e-05 5.1169223298e-05 4.138004806e-05 7.6519521826e-05 4.7957622883e-05
          3.0588023947e-05 6.3113257056e-05 5.2523377235e-05 4.2674244469e-05 7.6449745393e-05 5.0382597692e-05
          2.9063545298e-05 6.2888648245e-05 5.0555925554e-05 4.4030606659e-05 7.457160973e-05 5.0232370995e-05
          5.3031308198e-05 4.6929704695e-05 5.0735976401e-05 5.4087722674e-05 4.633826029e-05 5.0383649068e-05
          5.3063533414e-05 4.4698295824e-05 4.8958263505e-05 4.2527390178e-05 7.3050614446e-05 4.8176956625e-05
          5.4177904531e-05 4.5510052587e-05 4.9270402087e-05 5.3610288887e-05 4.6090237447e-05 4.7912977607e-05
          5.3015981393e-05 4.7200475819e-05 4.7217941756e-05 3.0355464332e-05 6.2409439124e-05 4.9763260904e-05
          2.9556842492e-05 6.2676022935e-05 4.9146547099e-05 2.9228005587e-05 6.5002146584e-05 5.08997e-05
          4.206023732e-05 7.3645765951e-05 5.0525588449e-05 4.1264545871e-05 7.2177805123e-05 4.954360702e-05
          5.183763642e-05 4.5040691475e-05 5.0229311455e-05 5.2318220696e-05 4.7019912017e-05 4.9282218242e-05
          3.0198496461e-05 6.19467246e-05 4.8406840506e-05 2.87700841e-05 6.2678584072e-05 4.813378473e-05
          4.1618826799e-05 7.2439492214e-05 5.1308335969e-05 3.0615119613e-05 6.1194579757e-05 5.0012677093e-05
          4.0835733671e-05 7.4357536505e-05 5.1761999202e-05 5.3801621107e-05 4.7090779844e-05 4.9591366405e-05
          3.0277651604e-05 6.4055660914e-05 4.942439773e-05 5.3094234318e-05 4.5616310672e-05 4.9526177463e-05
          5.3493546147e-05 4.7646306484e-05 5.059555042e-05 3.1870928069e-05 6.2088482082e-05 4.9978356401e-05
          4.1790510295e-05 7.5277828728e-05 4.8321559007e-05 2.8944547012e-05 6.1061749875e-05 5.0127524446e-05
          3.0970888474e-05 6.2702834839e-05 5.0994705816e-05 4.2830419261e-05 7.5039941294e-05 5.11486287e-05
          5.301866986e-05 4.7746234486e-05 4.9737609515e-05 2.9953154808e-05 6.3610896177e-05 5.0891452702e-05
          5.2417472034e-05 4.5295037125e-05 5.1805214753e-05 4.0391165385e-05 7.5233750977e-05 5.2062168834e-05
          2.8426376957e-05 6.258796202e-05 5.1171537052e-05 2.8106891477e-05 6.3755018346e-05 4.8805930419e-05
          5.2071187383e-05 4.7418070608e-05 5.0758630096e-05 4.1992425395e-05 7.3708688433e-05 5.1981671277e-05
          5.3763826145e-05 4.3697444198e-05 5.094154767e-05 4.0600865759e-05 7.4266448792e-05 4.8597248679e-05
          4.1074519686e-05 7.4653231422e-05 4.9747995945e-05 5.2848943596e-05 4.6065026254e-05 5.1511990023e-05
          5.1426242862e-05 4.6734960051e-05 5.1425176935e-05 3.1663057598e-05 6.3584688178e-05 5.0574246416e-05
          5.0945611292e-05 4.5321554353e-05 4.8469770263e-05 4.3660955271e-05 7.3148279625e-05 5.0005117373e-05
          5.1985374739e-05 4.7812885896e-05 4.9151742132e-05 4.225968587e-05 7.6306328992e-05 4.816994624e-05
          2.7720327125e-05 6.3834806497e-05 5.1140483265e-05 4.378498852e-05 7.5271040259e-05 5.1168452046e-05
          3.0131070162e-05 6.4433937951e-05 4.8370467994e-05 4.2494732043e-05 7.5955176726e-05 5.1055674703e-05
          5.4603395256e-05 4.5904824219e-05 5.2383613365e-05 5.4727162933e-05 4.6279150411e-05 4.9523412599e-05
          4.1110441089e-05 7.5505522545e-05 4.9226840929e-05 2.8812848541e-05 6.3916340878e-05 5.071868145e-05
          4.13247908e-05 7.326152263e-05 4.8289879487e-05 3.0728675483e-05 6.3249695813e-05 4.9818212574e-05
          4.0401155275e-05 7.5893098256e-05 5.1137310948e-05 2.9663686291e-05 6.2315746618e-05 5.2377505199e-05
          4.3406187615e-05 7.5906056736e-05 4.8943813454e-05 4.3219879444e-05 7.4358307756e-05 4.9529906391e-05
          4.1616694944e-05 7.4090618e-05 4.7762685426e-05 2.987836524e-05 6.4923377067e-05 5.1934141084e-05
          5.2863881137e-05 4.5709217375e-05 4.6976514568e-05 2.9549093597e-05 6.2906110543e-05 5.1474249631e-05
          2.9420418286e-05 6.1060942244e-05 4.8846934078e-05 4.268403427e-05 7.5116411608e-05 4.7567715228e-05
          4.3782354624e-05 7.4138450145e-05 4.8209771194e-05 5.191823584e-05 4.5326141844e-05 4.9002013839e-05
          5.2001683798e-05 4.650279152e-05 5.0532798923e-05 4.1391416744e-05 7.3692273872e-05 4.9479567679e-05
          2.9530196116e-05 6.1888167693e-05 5.0360467867e-05 5.3233587096e-05 4.5094053348e-05 5.0587408623e-05
          2.7918107662e-05 6.3803352532e-05 4.9931724789e-05 3.0058472476e-05 6.2418148445e-05 5.0862778153e-05
          5.2962037444e-05 4.7368252126e-05 5.1523504226e-05 5.3985164413e-05 4.6306362492e-05 5.12581355e-05
          5.1983763115e-05 4.4301195885e-05 4.9335543736e-05 5.4454281781e-05 4.4841097406e-05 5.0210433983e-05
          5.2779978432e-05 4.7278121201e-05 4.8293357395e-05 2.9697079299e-05 6.3626488554e-05 4.9135913287e-05
          2.8106143873e-05 6.369411858e-05 4.772009197e-05 4.0452097892e-05 7.3995106504e-05 5.0668419135e-05
          5.3060019127e-05 4.6630375437e-05 4.9767568271e-05 5.1899212849e-05 4.7274745157e-05 4.7730798542e-05
          2.963535735e-05 6.3331404817e-05 4.8289464758e-05 5.3357092838e-05 4.633802746e-05 4.8736041208e-05
          2.9930450182e-05 6.3950166805e-05 5.2700110245e-05 4.195576912e-05 7.4485265941e-05 4.855336374e-05
          3.1795661926e-05 6.2738952693e-05 4.8102421715e-05 4.2588995711e-05 7.2898787039e-05 5.1834336773e-05
          2.9061386158e-05 6.1067519709e-05 5.1613231335e-05 3.1057628803e-05 6.1355392972e-05 4.8680594773e-05
          4.1398787289e-05 7.3460367275e-05 5.1229148085e-05 5.2860075812e-05 4.4111635361e-05 4.9860493164e-05
          4.125741907e-05 7.494779129e-05 5.0319576985e-05 5.425456402e-05 4.686694956e-05 4.7731253289e-05
          4.2357962229e-05 7.3231341958e-05 4.9668618885e-05 4.1964525735e-05 7.2763919889e-05 4.9082074838e-05
          5.2472147217e-05 4.6289598686e-05 4.8642905313e-05 3.0770046578e-05 6.2278792029e-05 4.7641620768e-05
          4.2049425247e-05 7.2507005825e-05 5.0236769312e-05 2.9552318665e-05 6.410786591e-05 5.0252274377e-05
          4.1493356548e-05 7.4682422564e-05 4.9079942983e-05 4.2101717554e-05 7.4384915933e-05 5.1414328482e-05
          5.1217342843e-05 4.8235386203e-05 5.0870392442e-05 2.8688949897e-05 6.4521365857e-05 5.2529270761e-05
          4.1214421799e-05 7.4836301792e-05 5.2479012083e-05 2.9862154406e-05 6.4785184804e-05 4.9708491133e-05
          5.326093742e-05 4.6752225899e-05 5.2335599321e-05 5.3994644986e-05 4.6824487072e-05 5.259840691e-05
          4.2739506171e-05 7.4968098488e-05 4.9317171943e-05 3.0706512916e-05 6.2372302637e-05 5.1555558457e-05
          4.1932755266e-05 7.4571718869e-05 5.0749375077e-05 5.3081574151e-05 4.7637287935e-05 4.9082776968e-05
          2.9982697015e-05 6.5415733843e-05 5.0013761211e-05 5.4315569287e-05 4.8059497203e-05 4.9597179895e-05
          2.8264008506e-05 6.252239109e-05 4.9941907491e-05 5.1245755458e-05 4.7630404879e-05 5.0356065913e-05
          4.249765334e-05 7.6288786659e-05 4.9335361837e-05 3.0015113225e-05 6.1567887315e-05 4.9388276238e-05
          5.2373681683e-05 4.5818909712e-05 5.0658301916e-05 3.1148814742e-05 6.1657367041e-05 5.0913251471e-05
          5.45350631e-05 4.7608700697e-05 5.0696202379e-05 3.145429946e-05 6.2886305386e-05 4.9788075557e-05
          5.249957394e-05 4.7365731007e-05 5.0281028962e-05 3.000720244e-05 6.394040247e-05 5.1688581152e-05