<?xml version="1.0"?>
<VTKFile type="UnstructuredGrid" version="0.1" byte_order="LittleEndian" header_type="UInt32" compressor="vtkZLibDataCompressor">
  <UnstructuredGrid>
    <Piece NumberOfPoints="1288" NumberOfCells="1288">
      <PointData>
        <DataArray type="Int32" Name="id" format="ascii" RangeMin="1" RangeMax="1288">
          8 6 5 11 12 13
          21 22 23 32 33 34
          44 45 46 47 48 49
          57 58 67 68 78 79
          80 81 82 83 94 95
          96 97 98 99 113 114
          115 116 117 118 138 139
          140 141 142 143 144 145
          160 161 162 163 164 165
          166 167 168 189 190 191
          192 193 194 195 196 229
          230 231 232 233 234 235
          236 237 238 239 240 241
          242 243 274 275 276 277
          278 279 280 281 282 283
          284 285 286 287 313 314
          315 316 317 318 319 320
          321 322 323 324 371 372
          373 374 375 376 377 378
          379 380 381 382 383 384
          385 386 447 448 449 450
          451 452 453 454 455 456
          457 458 459 460 461 462
          463 464 465 466 467 510
          511 512 513 514 515 516
          517 518 519 520 521 522
          523 524 525 526 527 528
          529 530 531 580 581 582
          583 584 585 586 587 588
          589 590 591 592 593 594
          595 596 597 598 599 600
          601 602 603 604 605 606
          607 608 609 610 679 680
          681 682 683 684 685 686
          687 688 689 690 691 692
          693 694 695 696 697 698
          699 700 701 702 703 704
          705 791 792 793 794 795
          796 797 798 799 800 801
          802 803 804 805 806 807
          808 809 810 895 896 897
          898 899 900 901 902 903
          904 905 906 907 908 909
          910 911 912 913 914 915
          916 1001 1002 1003 1004 1005
          1006 1007 1008 1009 1010 1011
          1012 1013 1014 1015 1016 1017
          1018 1019 1020 1021 1022 1023
          1024 1025 1026 1027 1028 1029
          1030 1031 1032 1033 1034 1035
          1036 1037 1038 1039 1040 1041
          1042 1043 1044 1045 1046 1047
          1048 1049 1143 1144 1145 1146
          1147 1148 1149 1150 1151 1152
          1153 1154 1155 1156 1157 1158
          1159 1160 1161 1162 1163 1164
          1165 1166 1167 1168 1169 1170
          1171 1172 1173 1174 1175 1176
          1177 1178 1179 1180 1181 1182
          1183 9 4 3 7 14
          15 16 17 24 25 26
          30 31 35 36 37 41
          50 51 52 53 54 59
          60 61 62 63 69 70
          71 72 84 85 86 87
          88 89 100 101 102 103
          104 105 106 107 119 120
          121 122 123 124 125 126
          127 128 129 130 146 147
          148 149 150 151 169 170
          171 172 173 174 175 176
          177 178 179 197 198 199
          200 201 202 203 204 205
          206 207 208 209 210 211
          212 213 214 215 216 244
          245 246 247 248 249 250
          251 252 253 254 255 256
          257 258 259 260 261 288
          289 290 291 292 293 294
          295 296 297 298 299 300
          301 325 326 327 328 329
          330 331 332 333 334 335
          336 337 338 339 340 341
          342 343 344 345 346 347
          387 388 389 390 391 392
          393 394 395 396 397 398
          399 400 401 402 403 404
          405 406 407 408 409 410
          411 412 413 414 415 416
          417 418 419 420 421 422
          423 468 469 470 471 472
          473 474 475 476 477 478
          479 480 481 482 483 484
          485 486 487 488 489 490
          491 492 493 494 495 496
          532 533 534 535 536 537
          538 539 540 541 542 543
          544 545 546 547 548 549
          550 551 552 553 554 555
          556 557 558 559 611 612
          613 614 615 616 617 618
          619 620 621 622 623 624
          625 626 627 628 629 630
          631 632 633 634 635 636
          637 638 639 640 641 642
          643 644 645 706 707 708
          709 710 711 712 713 714
          715 716 717 718 719 720
          721 722 723 724 725 726
          727 728 729 730 731 732
          733 734 735 736 737 738
          739 740 741 742 743 744
          745 746 747 748 749 750
          751 752 753 754 811 812
          813 814 815 816 817 818
          819 820 821 822 823 824
          825 826 827 828 829 830
          831 832 833 834 835 836
          837 838 839 840 841 842
          843 844 845 846 847 848
          849 850 851 852 853 854
          855 856 857 858 917 918
          919 920 921 922 923 924
          925 926 927 928 929 930
          931 932 933 934 935 936
          937 938 939 940 941 942
          943 944 945 946 947 948
          949 950 951 952 953 954
          955 956 957 958 959 960
          961 962 963 964 965 966
          967 968 969 970 1050 1051
          1052 1053 1054 1055 1056 1057
          1058 1059 1060 1061 1062 1063
          1064 1065 1066 1067 1068 1069
          1070 1071 1072 1073 1074 1075
          1076 1077 1078 1079 1080 1081
          1082 1083 1084 1085 1086 1087
          1088 1089 1090 1091 1092 1093
          1094 1095 1096 1097 1098 1099
          1100 1101 1102 1103 1104 1184
          1185 1186 1187 1188 1189 1190
          1191 1192 1193 1194 1195 1196
          1197 1198 1199 1200 1201 1202
          1203 1204 1205 1206 1207 1208
          1209 1210 1211 1212 1213 1214
          1215 1216 1217 1218 1219 1220
          1221 1222 1223 1224 1225 1226
          1227 1228 1229 1230 1231 1232
          1233 1234 1235 1236 1237 10
          1 18 19 27 28 38
          39 42 55 56 64 73
          74 75 76 77 90 108
          109 110 111 112 131 132
          133 152 153 154 155 156
          157 180 181 182 183 184
          185 217 218 219 220 221
          222 223 224 262 263 264
          265 266 267 268 302 303
          304 305 306 307 308 348
          349 350 351 352 353 354
          355 356 357 358 359 360
          361 362 363 424 425 426
          427 428 429 430 431 432
          433 434 435 436 437 497
          498 499 500 501 502 503
          560 561 562 563 564 565
          566 567 568 569 570 571
          572 573 574 646 647 648
          649 650 651 652 653 654
          655 656 657 658 659 660
          661 662 663 664 665 666
          755 756 757 758 759 760
          761 762 763 764 765 766
          767 768 769 770 771 772
          773 774 859 860 861 862
          863 864 865 866 867 868
          869 870 871 872 873 874
          875 876 877 878 879 880
          881 971 972 973 974 975
          976 977 978 979 980 981
          982 983 984 985 986 987
          988 989 990 991 992 1105
          1106 1107 1108 1109 1110 1111
          1112 1113 1114 1115 1116 1117
          1118 1119 1120 1121 1122 1123
          1124 1125 1126 1127 1128 1129
          1238 1239 1240 1241 1242 1243
          1244 1245 1246 1247 1248 1249
          1250 1251 1252 1253 1254 1255
          1256 1257 1258 1259 1260 1261
          1262 1263 1264 1265 1266 1267
          1268 1269 1270 2 20 29
          40 43 65 66 91 92
          93 134 135 136 137 158
          159 186 187 188 225 226
          227 228 269 270 271 272
          273 309 310 311 312 364
          365 366 367 368 369 370
          438 439 440 441 442 443
          444 445 446 504 505 506
          507 508 509 575 576 577
          578 579 667 668 669 670
          671 672 673 674 675 676
          677 678 775 776 777 778
          779 780 781 782 783 784
          785 786 787 788 789 790
          882 883 884 885 886 887
          888 889 890 891 892 893
          894 993 994 995 996 997
          998 999 1000 1130 1131 1132
          1133 1134 1135 1136 1137 1138
          1139 1140 1141 1142 1271 1272
          1273 1274 1275 1276 1277 1278
          1279 1280 1281 1282 1283 1284
          1285 1286 1287 1288
        </DataArray>
        <DataArray type="Int32" Name="type" format="ascii" RangeMin="1" RangeMax="1">
          1 1 1 1 1 1
          1 1 1 1 1 1
          1 1 1 1 1 1
          1 1 1 1 1 1
          1 1 1 1 1 1
          1 1 1 1 1 1
          1 1 1 1 1 1
          1 1 1 1 1 1
          1 1 1 1 1 1
          1 1 1 1 1 1
          1 1 1 1 1 1
          1 1 1 1 1 1
          1 1 1 1 1 1
          1 1 1 1 1 1
          1 1 1 1 1 1
          1 1 1 1 1 1
          1 1 1 1 1 1
          1 1 1 1 1 1
          1 1 1 1 1 1
          1 1 1 1 1 1
          1 1 1 1 1 1
          1 1 1 1 1 1
          1 1 1 1 1 1
          1 1 1 1 1 1
          1 1 1 1 1 1
          1 1 1 1 1 1
          1 1 1 1 1 1
          1 1 1 1 1 1
          1 1 1 1 1 1
          1 1 1 1 1 1
          1 1 1 1 1 1
          1 1 1 1 1 1
          1 1 1 1 1 1
          1 1 1 1 1 1
          1 1 1 1 1 1
          1 1 1 1 1 1
          1 1 1 1 1 1
          1 1 1 1 1 1
          1 1 1 1 1 1
          1 1 1 1 1 1
          1 1 1 1 1 1
          1 1 1 1 1 1
          1 1 1 1 1 1
          1 1 1 1 1 1
          1 1 1 1 1 1
          1 1 1 1 1 1
          1 1 1 1 1 1
          1 1 1 1 1 1
          1 1 1 1 1 1
          1 1 1 1 1 1
          1 1 1 1 1 1
          1 1 1 1 1 1
          1 1 1 1 1 1
          1 1 1 1 1 1
          1 1 1 1 1 1
          1 1 1 1 1 1
          1 1 1 1 1 1
          1 1 1 1 1 1
          1 1 1 1 1 1
          1 1 1 1 1 1
          1 1 1 1 1 1
          1 1 1 1 1 1
          1 1 1 1 1 1
          1 1 1 1 1 1
          1 1 1 1 1 1
          1 1 1 1 1 1
          1 1 1 1 1 1
          1 1 1 1 1 1
          1 1 1 1 1 1
          1 1 1 1 1 1
          1 1 1 1 1 1
          1 1 1 1 1 1
          1 1 1 1 1 1
          1 1 1 1 1 1
          1 1 1 1 1 1
          1 1 1 1 1 1
          1 1 1 1 1 1
          1 1 1 1 1 1
          1 1 1 1 1 1
          1 1 1 1 1 1
          1 1 1 1 1 1
          1 1 1 1 1 1
          1 1 1 1 1 1
          1 1 1 1 1 1
          1 1 1 1 1 1
          1 1 1 1 1 1
          1 1 1 1 1 1
          1 1 1 1 1 1
          1 1 1 1 1 1
          1 1 1 1 1 1
          1 1 1 1 1 1
          1 1 1 1 1 1
          1 1 1 1 1 1
          1 1 1 1 1 1
          1 1 1 1 1 1
          1 1 1 1 1 1
          1 1 1 1 1 1
          1 1 1 1 1 1
          1 1 1 1 1 1
          1 1 1 1 1 1
          1 1 1 1 1 1
          1 1 1 1 1 1
          1 1 1 1 1 1
          1 1 1 1 1 1
          1 1 1 1 1 1
          1 1 1 1 1 1
          1 1 1 1 1 1
          1 1 1 1 1 1
          1 1 1 1 1 1
          1 1 1 1 1 1
          1 1 1 1 1 1
          1 1 1 1 1 1
          1 1 1 1 1 1
          1 1 1 1 1 1
          1 1 1 1 1 1
          1 1 1 1 1 1
          1 1 1 1 1 1
          1 1 1 1 1 1
          1 1 1 1 1 1
          1 1 1 1 1 1
          1 1 1 1 1 1
          1 1 1 1 1 1
          1 1 1 1 1 1
          1 1 1 1 1 1
          1 1 1 1 1 1
          1 1 1 1 1 1
          1 1 1 1 1 1
          1 1 1 1 1 1
          1 1 1 1 1 1
          1 1 1 1 1 1
          1 1 1 1 1 1
          1 1 1 1 1 1
          1 1 1 1 1 1
          1 1 1 1 1 1
          1 1 1 1 1 1
          1 1 1 1 1 1
          1 1 1 1 1 1
          1 1 1 1 1 1
          1 1 1 1 1 1
          1 1 1 1 1 1
          1 1 1 1 1 1
          1 1 1 1 1 1
          1 1 1 1 1 1
          1 1 1 1 1 1
          1 1 1 1 1 1
          1 1 1 1 1 1
          1 1 1 1 1 1
          1 1 1 1 1 1
          1 1 1 1 1 1
          1 1 1 1 1 1
          1 1 1 1 1 1
          1 1 1 1 1 1
          1 1 1 1 1 1
          1 1 1 1 1 1
          1 1 1 1 1 1
          1 1 1 1 1 1
          1 1 1 1 1 1
          1 1 1 1 1 1
          1 1 1 1 1 1
          1 1 1 1 1 1
          1 1 1 1 1 1
          1 1 1 1 1 1
          1 1 1 1 1 1
          1 1 1 1 1 1
          1 1 1 1 1 1
          1 1 1 1 1 1
          1 1 1 1 1 1
          1 1 1 1 1 1
          1 1 1 1 1 1
          1 1 1 1 1 1
          1 1 1 1 1 1
          1 1 1 1 1 1
          1 1 1 1 1 1
          1 1 1 1 1 1
          1 1 1 1 1 1
          1 1 1 1 1 1
          1 1 1 1 1 1
          1 1 1 1 1 1
          1 1 1 1 1 1
          1 1 1 1 1 1
          1 1 1 1 1 1
          1 1 1 1 1 1
          1 1 1 1 1 1
          1 1 1 1 1 1
          1 1 1 1 1 1
          1 1 1 1 1 1
          1 1 1 1 1 1
          1 1 1 1 1 1
          1 1 1 1 1 1
          1 1 1 1 1 1
          1 1 1 1 1 1
          1 1 1 1 1 1
          1 1 1 1 1 1
          1 1 1 1 1 1
          1 1 1 1 1 1
          1 1 1 1 1 1
          1 1 1 1 1 1
          1 1 1 1 1 1
          1 1 1 1 1 1
          1 1 1 1 1 1
          1 1 1 1 1 1
          1 1 1 1 1 1
          1 1 1 1 1 1
          1 1 1 1 1 1
          1 1 1 1 1 1
          1 1 1 1 1 1
          1 1 1 1 1 1
          1 1 1 1 1 1
          1 1 1 1 1 1
          1 1 1 1 1 1
          1 1 1 1 1 1
          1 1 1 1 1 1
          1 1 1 1 1 1
          1 1 1 1 1 1
          1 1 1 1
        </DataArray>
        <DataArray type="Float64" Name="diameter" format="ascii" RangeMin="1.0100121026e-06" RangeMax="1.3597883106e-06">
          1.1756688662e-06 1.0900174249e-06 1.1242892281e-06 1.1647853975e-06 1.3251392141e-06 1.1753484992e-06
          1.2890500241e-06 1.2652065592e-06 1.047506547e-06 1.2229725446e-06 1.2081764795e-06 1.1515652776e-06
          1.2070396968e-06 1.0391930719e-06 1.0878002048e-06 1.2614571389e-06 1.1707777958e-06 1.1221808414e-06
          1.2342801231e-06 1.2938382336e-06 1.0969120322e-06 1.2861053204e-06 1.1905549377e-06 1.2147862068e-06
          1.1979716427e-06 1.1847679368e-06 1.1834522772e-06 1.1066483632e-06 1.1091478618e-06 1.1283302395e-06
          1.3266519748e-06 1.0788342505e-06 1.2326745572e-06 1.0529433147e-06 1.2563497742e-06 1.1956772452e-06
          1.2845096314e-06 1.135248042e-06 1.0851571171e-06 1.2208033199e-06 1.1331958809e-06 1.3021003696e-06
          1.3572779786e-06 1.0861659649e-06 1.3104224777e-06 1.2869253096e-06 1.1810509609e-06 1.2461557073e-06
          1.1148603613e-06 1.0956870615e-06 1.1189013919e-06 1.1225459296e-06 1.2772689523e-06 1.2439379331e-06
          1.3208792259e-06 1.2014913227e-06 1.1941326417e-06 1.2066544021e-06 1.3331619726e-06 1.2617529122e-06
          1.1151244621e-06 1.0906648678e-06 1.1116543695e-06 1.1382469523e-06 1.0722634986e-06 1.1865893929e-06
          1.1522082125e-06 1.2469094666e-06 1.099156179e-06 1.2423169461e-06 1.0521279297e-06 1.1967520137e-06
          1.0431929726e-06 1.1724583125e-06 1.0782163066e-06 1.3382021879e-06 1.1697074903e-06 1.3406892608e-06
          1.3518540142e-06 1.0814020588e-06 1.2024597109e-06 1.2207803101e-06 1.0691747564e-06 1.191282334e-06
          1.2964463027e-06 1.202989743e-06 1.1823726828e-06 1.0100121026e-06 1.336850792e-06 1.311699683e-06
          1.3486717929e-06 1.0975883519e-06 1.210867373e-06 1.2713040083e-06 1.2709594602e-06 1.3168357602e-06
          1.2580404428e-06 1.096101488e-06 1.2510368536e-06 1.1239077797e-06 1.3395914937e-06 1.2242750266e-06
          1.1643479031e-06 1.2239826854e-06 1.3295695234e-06 1.1386610422e-06 1.228401348e-06 1.2811036332e-06
          1.3587436633e-06 1.2594020908e-06 1.1364783884e-06 1.0830327591e-06 1.0968580706e-06 1.3433391766e-06
          1.2850968948e-06 1.1523414883e-06 1.2587517307e-06 1.3237583895e-06 1.2014199841e-06 1.1968562325e-06
          1.0688058281e-06 1.3141419641e-06 1.3129349617e-06 1.1397040749e-06 1.141222426e-06 1.1404373993e-06
          1.0831341672e-06 1.3322159776e-06 1.2261797224e-06 1.3577850314e-06 1.1673970753e-06 1.1256499529e-06
          1.3004784989e-06 1.1576122432e-06 1.3331203746e-06 1.0559696512e-06 1.2627455199e-06 1.1267742651e-06
          1.3428536133e-06 1.0972972294e-06 1.0434876499e-06 1.145290193e-06 1.3343356993e-06 1.2129083387e-06
          1.3387895304e-06 1.2621144399e-06 1.1970316527e-06 1.2796091173e-06 1.2241749931e-06 1.3141923493e-06
          1.2861668676e-06 1.2791416373e-06 1.0844665437e-06 1.0237592081e-06 1.0858962822e-06 1.2549274031e-06
          1.329204595e-06 1.2834077736e-06 1.1272959892e-06 1.1204787475e-06 1.283810503e-06 1.0639850758e-06
          1.0954803539e-06 1.3377241209e-06 1.1953888956e-06 1.0835653261e-06 1.1527427245e-06 1.1354578773e-06
          1.1291047796e-06 1.2230751615e-06 1.3248640169e-06 1.2384849565e-06 1.3443474811e-06 1.0335864109e-06
          1.0869480685e-06 1.1479236676e-06 1.1347040738e-06 1.0822899957e-06 1.3336247936e-06 1.323355662e-06
          1.3207805961e-06 1.2962002315e-06 1.2547699975e-06 1.2216829232e-06 1.2316957037e-06 1.3059630565e-06
          1.2869862004e-06 1.1144797872e-06 1.2601741271e-06 1.0588706341e-06 1.3164211952e-06 1.3582721416e-06
          1.2283908025e-06 1.263365233e-06 1.1850322296e-06 1.0887016693e-06 1.2990257307e-06 1.2439431566e-06
          1.3504818087e-06 1.0804532806e-06 1.2797563479e-06 1.3257764242e-06 1.0945845928e-06 1.1749367153e-06
          1.353921192e-06 1.2604656032e-06 1.2900369189e-06 1.0792047111e-06 1.3113761781e-06 1.207212635e-06
          1.2469894053e-06 1.2760054164e-06 1.3460523447e-06 1.1681000125e-06 1.3282309345e-06 1.3201760341e-06
          1.3259203361e-06 1.3214830761e-06 1.1788200511e-06 1.3511528489e-06 1.27830868e-06 1.2574446574e-06
          1.3506795477e-06 1.2279633427e-06 1.2048019336e-06 1.0552409425e-06 1.2113198673e-06 1.2547152167e-06
          1.305417194e-06 1.1791882464e-06 1.3404822935e-06 1.2873836338e-06 1.2286596019e-06 1.2589958142e-06
          1.1667585161e-06 1.2791632747e-06 1.3594653394e-06 1.132785458e-06 1.1833813826e-06 1.3119028679e-06
          1.2263533866e-06 1.2974843141e-06 1.1778687207e-06 1.296969687e-06 1.1552880069e-06 1.1087909978e-06
          1.1490753157e-06 1.2531864001e-06 1.142564475e-06 1.191664277e-06 1.1415246004e-06 1.1522068282e-06
          1.251571938e-06 1.0844227052e-06 1.1407440141e-06 1.1785111571e-06 1.089625459e-06 1.239428175e-06
          1.2174392025e-06 1.2225155855e-06 1.1861765628e-06 1.2664025753e-06 1.1498281536e-06 1.3097496965e-06
          1.2573100612e-06 1.1764423262e-06 1.0923550993e-06 1.0328132681e-06 1.1779530295e-06 1.1545789277e-06
          1.1227049664e-06 1.0743104829e-06 1.0688798843e-06 1.158989539e-06 1.1107075556e-06 1.1994821479e-06
          1.0677238777e-06 1.1430857699e-06 1.1365644002e-06 1.1848496442e-06 1.1558712131e-06 1.0386898458e-06
          1.108661796e-06 1.1734892399e-06 1.1661330975e-06 1.1279150745e-06 1.1555484368e-06 1.1692167678e-06
          1.1306609151e-06 1.1941075944e-06 1.1947923453e-06 1.1207897454e-06 1.132021008e-06 1.1621897217e-06
          1.2270392624e-06 1.1733882152e-06 1.1622386279e-06 1.0810324935e-06 1.1682317267e-06 1.2408952444e-06
          1.0703163287e-06 1.1278946493e-06 1.2057993143e-06 1.1022237073e-06 1.1035379883e-06 1.1862656809e-06
          1.1764656656e-06 1.1874407872e-06 1.0861202191e-06 1.1484953404e-06 1.2275868623e-06 1.1210781775e-06
          1.0891629713e-06 1.0873808256e-06 1.1083225252e-06 1.0322099875e-06 1.1565643877e-06 1.1570729605e-06
          1.0754509707e-06 1.0719242758e-06 1.1037373484e-06 1.0626462397e-06 1.1331130876e-06 1.0656719096e-06
          1.1047199841e-06 1.0551723737e-06 1.1298585689e-06 1.1829871645e-06 1.035927598e-06 1.1060104307e-06
          1.1443188717e-06 1.0749966256e-06 1.1100109583e-06 1.1115461353e-06 1.0428260785e-06 1.0843675205e-06
          1.1481585462e-06 1.0771222825e-06 1.1451838739e-06 1.1248533954e-06 1.0363155524e-06 1.0933591259e-06
          1.1540029217e-06 1.0580719864e-06 1.128710858e-06 1.1421137421e-06 1.0204537732e-06 1.1471568279e-06
          1.1498670623e-06 1.173660358e-06 1.1783853737e-06 1.1114106325e-06 1.0889090794e-06 1.0702773298e-06
          1.1180495278e-06 1.0963722015e-06 1.3281456768e-06 1.0526009562e-06 1.084682684e-06 1.308902204e-06
          1.2787165594e-06 1.3527689591e-06 1.2724788578e-06 1.1730032698e-06 1.1443103056e-06 1.3207019283e-06
          1.0348218756e-06 1.2132950379e-06 1.084720155e-06 1.2921043563e-06 1.3024669522e-06 1.1864149187e-06
          1.1794469737e-06 1.3551316139e-06 1.2515997534e-06 1.2728219652e-06 1.0948882344e-06 1.1940061493e-06
          1.3229586761e-06 1.1834801907e-06 1.2166694442e-06 1.242317862e-06 1.171617903e-06 1.098142433e-06
          1.2669045614e-06 1.1632650961e-06 1.3212821801e-06 1.2131408087e-06 1.2819379971e-06 1.2625185139e-06
          1.18100039e-06 1.2213215277e-06 1.0555991336e-06 1.3203092535e-06 1.3410578993e-06 1.141265317e-06
          1.1522685548e-06 1.1467701753e-06 1.1882961523e-06 1.212840487e-06 1.0559592446e-06 1.2686689226e-06
          1.1507824015e-06 1.3020381854e-06 1.2457164117e-06 1.2622336907e-06 1.1270504157e-06 1.2174995943e-06
          1.1575237965e-06 1.3550119129e-06 1.3002954896e-06 1.2336239936e-06 1.1613190646e-06 1.0931695234e-06
          1.2313537085e-06 1.1598636038e-06 1.3046532936e-06 1.0806598252e-06 1.2043699629e-06 1.3300811244e-06
          1.2077044497e-06 1.2374437001e-06 1.3316169476e-06 1.231637814e-06 1.1969661929e-06 1.1898934868e-06
          1.2785455643e-06 1.2775373977e-06 1.2430651545e-06 1.1465394263e-06 1.2179654701e-06 1.124017269e-06
          1.3359987043e-06 1.2298631926e-06 1.2236271481e-06 1.1509122149e-06 1.0245000392e-06 1.169871386e-06
          1.1970276538e-06 1.1975316855e-06 1.147465086e-06 1.0981870741e-06 1.2494791005e-06 1.2819385803e-06
          1.1458562017e-06 1.3068743064e-06 1.223985513e-06 1.2016087664e-06 1.1107261674e-06 1.1472305855e-06
          1.1525671902e-06 1.2388982426e-06 1.329427152e-06 1.3250804557e-06 1.2158916851e-06 1.1073554112e-06
          1.3564303617e-06 1.3467567382e-06 1.3293587934e-06 1.1472517929e-06 1.0819117538e-06 1.2254270973e-06
          1.2965596345e-06 1.2830134538e-06 1.1664885585e-06 1.2030188351e-06 1.3197815427e-06 1.2407308379e-06
          1.3429014901e-06 1.289933699e-06 1.2395918677e-06 1.1360565845e-06 1.2126032738e-06 1.2870788079e-06
          1.1927312856e-06 1.1123662423e-06 1.217078931e-06 1.1449043425e-06 1.1359660561e-06 1.2304146532e-06
          1.3320765816e-06 1.2256032898e-06 1.2656484377e-06 1.1222573814e-06 1.3207482225e-06 1.1373190836e-06
          1.1653858967e-06 1.3403662466e-06 1.2416810303e-06 1.1448319516e-06 1.1334508054e-06 1.3286037727e-06
          1.2026704707e-06 1.1893907009e-06 1.1703942634e-06 1.3122286072e-06 1.1308973546e-06 1.1355597398e-06
          1.159710405e-06 1.1085030588e-06 1.1256585813e-06 1.1976370292e-06 1.3094136376e-06 1.2929645585e-06
          1.2493007716e-06 1.3118108104e-06 1.1966475453e-06 1.1770037537e-06 1.0259709336e-06 1.1257050438e-06
          1.2696106713e-06 1.2509053443e-06 1.2491834083e-06 1.0667894011e-06 1.1588894474e-06 1.311972769e-06
          1.1278777487e-06 1.2902157909e-06 1.2680728946e-06 1.2044187716e-06 1.3119981481e-06 1.1821994486e-06
          1.2812876774e-06 1.1244878526e-06 1.082261378e-06 1.1834954121e-06 1.1870363201e-06 1.1873123376e-06
          1.3393851438e-06 1.3288938342e-06 1.2648387708e-06 1.3014571735e-06 1.2917079031e-06 1.289980061e-06
          1.2424097191e-06 1.2523557601e-06 1.2525278999e-06 1.2711714536e-06 1.2359761855e-06 1.2344844251e-06
          1.1669406065e-06 1.1274003272e-06 1.2260233685e-06 1.1404727601e-06 1.0852891993e-06 1.1660994754e-06
          1.2902365315e-06 1.2098700892e-06 1.3365296236e-06 1.1236168868e-06 1.1814583721e-06 1.1285007613e-06
          1.104358327e-06 1.0885250031e-06 1.0657214023e-06 1.268371656e-06 1.1312287016e-06 1.3171998454e-06
          1.1938912571e-06 1.1295514576e-06 1.0962001221e-06 1.2553784474e-06 1.1193156294e-06 1.1951719875e-06
          1.2088223013e-06 1.139658893e-06 1.1895081215e-06 1.2971612842e-06 1.2070663113e-06 1.1188909048e-06
          1.2590319001e-06 1.333162511e-06 1.3126561859e-06 1.1612817629e-06 1.271360332e-06 1.2346206265e-06
          1.1353086017e-06 1.1277080657e-06 1.1554278249e-06 1.1979264065e-06 1.2842515326e-06 1.3113534275e-06
          1.1419926876e-06 1.1995557941e-06 1.3552826646e-06 1.1254942285e-06 1.1314294404e-06 1.1945884108e-06
          1.1539114283e-06 1.3519531869e-06 1.215097546e-06 1.0741588249e-06 1.3123442792e-06 1.2466711728e-06
          1.0247808315e-06 1.2158430634e-06 1.1020068281e-06 1.212730516e-06 1.2945714508e-06 1.3462247504e-06
          1.2914768408e-06 1.2318271545e-06 1.0412522998e-06 1.1573736608e-06 1.1878087759e-06 1.1080172124e-06
          1.0534744792e-06 1.3390910045e-06 1.0434564677e-06 1.2899242335e-06 1.3266997728e-06 1.0748271468e-06
          1.0874739268e-06 1.1759759897e-06 1.1692598835e-06 1.3436680681e-06 1.1533193029e-06 1.1318695134e-06
          1.3419804722e-06 1.3428546499e-06 1.1518024677e-06 1.3493025559e-06 1.2714484649e-06 1.2830424169e-06
          1.232458372e-06 1.1130742671e-06 1.3291107173e-06 1.2820205183e-06 1.3195605851e-06 1.1618144472e-06
          1.3597883106e-06 1.1693665549e-06 1.3357220648e-06 1.3179388365e-06 1.3392933581e-06 1.3360888625e-06
          1.1180575676e-06 1.1964778571e-06 1.2769932434e-06 1.3366586627e-06 1.2812886423e-06 1.0529083044e-06
          1.0526655753e-06 1.342300597e-06 1.2091933502e-06 1.0960682936e-06 1.3451603719e-06 1.2629807412e-06
          1.3149419487e-06 1.329148724e-06 1.303465631e-06 1.3276098659e-06 1.1830551779e-06 1.2687171873e-06
          1.3094969233e-06 1.0932250149e-06 1.2746849374e-06 1.2952988189e-06 1.0701059207e-06 1.3571487802e-06
          1.3442836208e-06 1.297375888e-06 1.0409051945e-06 1.2975332968e-06 1.280762104e-06 1.0176221106e-06
          1.3352615993e-06 1.3140462181e-06 1.2301470191e-06 1.2749364177e-06 1.2702807812e-06 1.2618813807e-06
          1.3412379764e-06 1.1076080178e-06 1.2721384862e-06 1.2483039418e-06 1.094826729e-06 1.3259467365e-06
          1.3135151792e-06 1.2302574988e-06 1.3566057281e-06 1.2062688605e-06 1.019748028e-06 1.2976548339e-06
          1.1507969595e-06 1.2272898022e-06 1.1069421116e-06 1.2219664649e-06 1.2375988083e-06 1.2952020031e-06
          1.2412904008e-06 1.1985493049e-06 1.0332407532e-06 1.2635638e-06 1.3321929781e-06 1.2475773831e-06
          1.1375735955e-06 1.2760698588e-06 1.3238710999e-06 1.1964289635e-06 1.3430516547e-06 1.3343889144e-06
          1.1715767608e-06 1.3068194748e-06 1.2655359534e-06 1.2760079421e-06 1.3061906363e-06 1.3205291006e-06
          1.3045910868e-06 1.2019530488e-06 1.2871503782e-06 1.26089744e-06 1.264376094e-06 1.1760285112e-06
          1.2678264673e-06 1.2284223602e-06 1.2877615509e-06 1.1471483214e-06 1.2146941788e-06 1.1448330861e-06
          1.266209658e-06 1.2207276282e-06 1.2154819649e-06 1.2769500391e-06 1.2160463543e-06 1.2500114018e-06
          1.0102057697e-06 1.1776133149e-06 1.2684479668e-06 1.203383017e-06 1.2103463451e-06 1.1690103593e-06
          1.1529689334e-06 1.1271918407e-06 1.202755351e-06 1.1030179796e-06 1.1747421982e-06 1.1625886338e-06
          1.1673983208e-06 1.2252675665e-06 1.152932054e-06 1.159706221e-06 1.1754036173e-06 1.2177220732e-06
          1.1655832326e-06 1.1884605088e-06 1.1530226954e-06 1.255203119e-06 1.1254519492e-06 1.1326997072e-06
          1.2389199607e-06 1.1656623294e-06 1.1771608019e-06 1.2748086313e-06 1.2373836953e-06 1.1889238133e-06
          1.1494807649e-06 1.1959317861e-06 1.2407482192e-06 1.122648255e-06 1.1651210103e-06 1.1592855117e-06
          1.2523792799e-06 1.2423051893e-06 1.3135835539e-06 1.1680086524e-06 1.2733237518e-06 1.1412778231e-06
          1.1736790049e-06 1.2098937042e-06 1.2733968142e-06 1.1166986019e-06 1.1822263716e-06 1.2695109747e-06
          1.136813195e-06 1.1846315163e-06 1.2546106146e-06 1.1622978329e-06 1.178033145e-06 1.2629614283e-06
          1.2536131968e-06 1.1643358689e-06 1.2011891222e-06 1.2505210694e-06 1.1881710747e-06 1.1427556555e-06
          1.1516875099e-06 1.1891727949e-06 1.175672454e-06 1.2017917549e-06 1.1882014847e-06 1.2023698286e-06
          1.2207422631e-06 1.1470161821e-06 1.1491248765e-06 1.0943166649e-06 1.0744623011e-06 1.0682751397e-06
          1.0728869903e-06 1.2039534821e-06 1.1595694317e-06 1.1170221266e-06 1.1560840411e-06 1.1149805698e-06
          1.172353681e-06 1.1741323055e-06 1.2265175174e-06 1.1283209434e-06 1.1106338526e-06 1.0537276451e-06
          1.1450291035e-06 1.1506105292e-06 1.2147126252e-06 1.1813292737e-06 1.1696362645e-06 1.0602672064e-06
          1.1564240668e-06 1.1738845452e-06 1.2313665856e-06 1.1680991156e-06 1.1592336554e-06 1.1619173034e-06
          1.1305236556e-06 1.1280019411e-06 1.1209075232e-06 1.1310837359e-06 1.1257935986e-06 1.0765186118e-06
          1.1928492359e-06 1.1480645274e-06 1.1711931798e-06 1.1800793651e-06 1.1112053595e-06 1.2019106111e-06
          1.1100308961e-06 1.1076016447e-06 1.1973476807e-06 1.1916000161e-06 1.1264752019e-06 1.1459057734e-06
          1.1027385265e-06 1.1112623913e-06 1.0856529185e-06 1.0181054881e-06 1.0653131323e-06 1.1621089689e-06
          1.0578754509e-06 1.0270912987e-06 1.0254390171e-06 1.0281242415e-06 1.1687019084e-06 1.0495961207e-06
          1.0557762166e-06 1.0638574511e-06 1.0810995007e-06 1.0667274116e-06 1.0946910618e-06 1.1385859842e-06
          1.1468323716e-06 1.1489037473e-06 1.144063748e-06 1.1101372993e-06 1.1041828166e-06 1.1147844729e-06
          1.0285034286e-06 1.0578101266e-06 1.1357640788e-06 1.0470540013e-06 1.0699240458e-06 1.1611391537e-06
          1.1499002144e-06 1.0911446447e-06 1.0563706212e-06 1.1521872706e-06 1.0844513839e-06 1.1101571087e-06
          1.0146891647e-06 1.0331084087e-06 1.134375319e-06 1.1587474765e-06 1.1107555511e-06 1.1389018846e-06
          1.0353818274e-06 1.1141492142e-06 1.132116656e-06 1.1729321282e-06 1.1468465801e-06 1.1002572067e-06
          1.1491192334e-06 1.1424743515e-06 1.0868674994e-06 1.1418229371e-06 1.1534665168e-06 1.3354083775e-06
          1.2421687193e-06 1.1998624272e-06 1.0667363092e-06 1.3026304342e-06 1.1387939464e-06 1.1508412148e-06
          1.3356909346e-06 1.3229761083e-06 1.2394165809e-06 1.0412112117e-06 1.163823407e-06 1.1003841948e-06
          1.3198389513e-06 1.3440937436e-06 1.1508712053e-06 1.0620066656e-06 1.0909420842e-06 1.333462629e-06
          1.304074083e-06 1.3106182482e-06 1.3194379579e-06 1.3058961518e-06 1.1348098652e-06 1.1001243265e-06
          1.2440242109e-06 1.285316633e-06 1.1733988842e-06 1.2426472188e-06 1.2925984414e-06 1.2125716455e-06