<?xml version="1.0"?>
<VTKFile type="UnstructuredGrid" version="0.1" byte_order="LittleEndian" header_type="UInt32" compressor="vtkZLibDataCompressor">
  <UnstructuredGrid>
    <Piece NumberOfPoints="1456" NumberOfCells="1456">
      <PointData>
        <DataArray type="Int32" Name="id" format="ascii" RangeMin="1" RangeMax="1456">
          8 6 5 11 12 13
          21 22 23 32 33 34
          44 45 46 47 48 49
          57 58 67 68 78 79
          80 81 82 83 94 95
          96 97 98 99 113 114
          115 116 117 118 138 139
          140 141 142 143 144 145
          160 161 162 163 164 165
          166 167 168 189 190 191
          192 193 194 195 196 229
          230 231 232 233 234 235
          236 237 238 239 240 241
          242 243 274 275 276 277
          278 279 280 281 282 283
          284 285 286 287 313 314
          315 316 317 318 319 320
          321 322 323 324 371 372
          373 374 375 376 377 378
          379 380 381 382 383 384
          385 386 447 448 449 450
          451 452 453 454 455 456
          457 458 459 460 461 462
          463 464 465 466 467 510
          511 512 513 514 515 516
          517 518 519 520 521 522
          523 524 525 526 527 528
          529 530 531 580 581 582
          583 584 585 586 587 588
          589 590 591 592 593 594
          595 596 597 598 599 600
          601 602 603 604 605 606
          607 608 609 610 679 680
          681 682 683 684 685 686
          687 688 689 690 691 692
          693 694 695 696 697 698
          699 700 701 702 703 704
          705 791 792 793 794 795
          796 797 798 799 800 801
          802 803 804 805 806 807
          808 809 810 895 896 897
          898 899 900 901 902 903
          904 905 906 907 908 909
          910 911 912 913 914 915
          916 1001 1002 1003 1004 1005
          1006 1007 1008 1009 1010 1011
          1012 1013 1014 1015 1016 1017
          1018 1019 1020 1021 1022 1023
          1024 1025 1026 1027 1028 1029
          1030 1031 1032 1033 1034 1035
          1036 1037 1038 1039 1040 1041
          1042 1043 1044 1045 1046 1047
          1048 1049 1143 1144 1145 1146
          1147 1148 1149 1150 1151 1152
          1153 1154 1155 1156 1157 1158
          1159 1160 1161 1162 1163 1164
          1165 1166 1167 1168 1169 1170
          1171 1172 1173 1174 1175 1176
          1177 1178 1179 1180 1181 1182
          1183 1289 1290 1291 1292 1293
          1294 1295 1296 1297 1298 1299
          1300 1301 1302 1303 1304 1305
          1306 1307 1308 1309 1310 1311
          1312 1313 1314 1315 1316 1317
          1318 1319 1320 1321 1322 1323
          1324 1325 1326 1327 1328 1329
          1330 1331 1332 1333 1334 1335
          9 4 3 7 14 15
          16 17 24 25 26 30
          31 35 36 37 41 50
          51 52 53 54 59 60
          61 62 63 69 70 71
          72 84 85 86 87 88
          89 100 101 102 103 104
          105 106 107 119 120 121
          122 123 124 125 126 127
          128 129 130 146 147 148
          149 150 151 169 170 171
          172 173 174 175 176 177
          178 179 197 198 199 200
          201 202 203 204 205 206
          207 208 209 210 211 212
          213 214 215 216 244 245
          246 247 248 249 250 251
          252 253 254 255 256 257
          258 259 260 261 288 289
          290 291 292 293 294 295
          296 297 298 299 300 301
          325 326 327 328 329 330
          331 332 333 334 335 336
          337 338 339 340 341 342
          343 344 345 346 347 387
          388 389 390 391 392 393
          394 395 396 397 398 399
          400 401 402 403 404 405
          406 407 408 409 410 411
          412 413 414 415 416 417
          418 419 420 421 422 423
          468 469 470 471 472 473
          474 475 476 477 478 479
          480 481 482 483 484 485
          486 487 488 489 490 491
          492 493 494 495 496 532
          533 534 535 536 537 538
          539 540 541 542 543 544
          545 546 547 548 549 550
          551 552 553 554 555 556
          557 558 559 611 612 613
          614 615 616 617 618 619
          620 621 622 623 624 625
          626 627 628 629 630 631
          632 633 634 635 636 637
          638 639 640 641 642 643
          644 645 706 707 708 709
          710 711 712 713 714 715
          716 717 718 719 720 721
          722 723 724 725 726 727
          728 729 730 731 732 733
          734 735 736 737 738 739
          740 741 742 743 744 745
          746 747 748 749 750 751
          752 753 754 811 812 813
          814 815 816 817 818 819
          820 821 822 823 824 825
          826 827 828 829 830 831
          832 833 834 835 836 837
          838 839 840 841 842 843
          844 845 846 847 848 849
          850 851 852 853 854 855
          856 857 858 917 918 919
          920 921 922 923 924 925
          926 927 928 929 930 931
          932 933 934 935 936 937
          938 939 940 941 942 943
          944 945 946 947 948 949
          950 951 952 953 954 955
          956 957 958 959 960 961
          962 963 964 965 966 967
          968 969 970 1050 1051 1052
          1053 1054 1055 1056 1057 1058
          1059 1060 1061 1062 1063 1064
          1065 1066 1067 1068 1069 1070
          1071 1072 1073 1074 1075 1076
          1077 1078 1079 1080 1081 1082
          1083 1084 1085 1086 1087 1088
          1089 1090 1091 1092 1093 1094
          1095 1096 1097 1098 1099 1100
          1101 1102 1103 1104 1184 1185
          1186 1187 1188 1189 1190 1191
          1192 1193 1194 1195 1196 1197
          1198 1199 1200 1201 1202 1203
          1204 1205 1206 1207 1208 1209
          1210 1211 1212 1213 1214 1215
          1216 1217 1218 1219 1220 1221
          1222 1223 1224 1225 1226 1227
          1228 1229 1230 1231 1232 1233
          1234 1235 1236 1237 1336 1337
          1338 1339 1340 1341 1342 1343
          1344 1345 1346 1347 1348 1349
          1350 1351 1352 1353 1354 1355
          1356 1357 1358 1359 1360 1361
          1362 1363 1364 1365 1366 1367
          1368 1369 1370 1371 1372 1373
          1374 1375 1376 1377 1378 1379
          1380 1381 1382 1383 1384 1385
          1386 1387 1388 1389 1390 1391
          1392 1393 1394 1395 1396 1397
          1398 1399 1400 1401 1402 1403
          1404 1405 1406 1407 1408 10
          1 18 19 27 28 38
          39 42 55 56 64 73
          74 75 76 77 90 108
          109 110 111 112 131 132
          133 152 153 154 155 156
          157 180 181 182 183 184
          185 217 218 219 220 221
          222 223 224 262 263 264
          265 266 267 268 302 303
          304 305 306 307 308 348
          349 350 351 352 353 354
          355 356 357 358 359 360
          361 362 363 424 425 426
          427 428 429 430 431 432
          433 434 435 436 437 497
          498 499 500 501 502 503
          560 561 562 563 564 565
          566 567 568 569 570 571
          572 573 574 646 647 648
          649 650 651 652 653 654
          655 656 657 658 659 660
          661 662 663 664 665 666
          755 756 757 758 759 760
          761 762 763 764 765 766
          767 768 769 770 771 772
          773 774 859 860 861 862
          863 864 865 866 867 868
          869 870 871 872 873 874
          875 876 877 878 879 880
          881 971 972 973 974 975
          976 977 978 979 980 981
          982 983 984 985 986 987
          988 989 990 991 992 1105
          1106 1107 1108 1109 1110 1111
          1112 1113 1114 1115 1116 1117
          1118 1119 1120 1121 1122 1123
          1124 1125 1126 1127 1128 1129
          1238 1239 1240 1241 1242 1243
          1244 1245 1246 1247 1248 1249
          1250 1251 1252 1253 1254 1255
          1256 1257 1258 1259 1260 1261
          1262 1263 1264 1265 1266 1267
          1268 1269 1270 1409 1410 1411
          1412 1413 1414 1415 1416 1417
          1418 1419 1420 1421 1422 1423
          1424 1425 1426 1427 1428 1429
          1430 1431 1432 1433 1434 1435
          1436 1437 1438 1439 2 20
          29 40 43 65 66 91
          92 93 134 135 136 137
          158 159 186 187 188 225
          226 227 228 269 270 271
          272 273 309 310 311 312
          364 365 366 367 368 369
          370 438 439 440 441 442
          443 444 445 446 504 505
          506 507 508 509 575 576
          577 578 579 667 668 669
          670 671 672 673 674 675
          676 677 678 775 776 777
          778 779 780 781 782 783
          784 785 786 787 788 789
          790 882 883 884 885 886
          887 888 889 890 891 892
          893 894 993 994 995 996
          997 998 999 1000 1130 1131
          1132 1133 1134 1135 1136 1137
          1138 1139 1140 1141 1142 1271
          1272 1273 1274 1275 1276 1277
          1278 1279 1280 1281 1282 1283
          1284 1285 1286 1287 1288 1440
          1441 1442 1443 1444 1445 1446
          1447 1448 1449 1450 1451 1452
          1453 1454 1455 1456
        </DataArray>
        <DataArray type="Int32" Name="type" format="ascii" RangeMin="1" RangeMax="1">
          1 1 1 1 1 1
          1 1 1 1 1 1
          1 1 1 1 1 1
          1 1 1 1 1 1
          1 1 1 1 1 1
          1 1 1 1 1 1
          1 1 1 1 1 1
          1 1 1 1 1 1
          1 1 1 1 1 1
          1 1 1 1 1 1
          1 1 1 1 1 1
          1 1 1 1 1 1
          1 1 1 1 1 1
          1 1 1 1 1 1
          1 1 1 1 1 1
          1 1 1 1 1 1
          1 1 1 1 1 1
          1 1 1 1 1 1
          1 1 1 1 1 1
          1 1 1 1 1 1
          1 1 1 1 1 1
          1 1 1 1 1 1
          1 1 1 1 1 1
          1 1 1 1 1 1
          1 1 1 1 1 1
          1 1 1 1 1 1
          1 1 1 1 1 1
          1 1 1 1 1 1
          1 1 1 1 1 1
          1 1 1 1 1 1
          1 1 1 1 1 1
          1 1 1 1 1 1
          1 1 1 1 1 1
          1 1 1 1 1 1
          1 1 1 1 1 1
          1 1 1 1 1 1
          1 1 1 1 1 1
          1 1 1 1 1 1
          1 1 1 1 1 1
          1 1 1 1 1 1
          1 1 1 1 1 1
          1 1 1 1 1 1
          1 1 1 1 1 1
          1 1 1 1 1 1
          1 1 1 1 1 1
          1 1 1 1 1 1
          1 1 1 1 1 1
          1 1 1 1 1 1
          1 1 1 1 1 1
          1 1 1 1 1 1
          1 1 1 1 1 1
          1 1 1 1 1 1
          1 1 1 1 1 1
          1 1 1 1 1 1
          1 1 1 1 1 1
          1 1 1 1 1 1
          1 1 1 1 1 1
          1 1 1 1 1 1
          1 1 1 1 1 1
          1 1 1 1 1 1
          1 1 1 1 1 1
          1 1 1 1 1 1
          1 1 1 1 1 1
          1 1 1 1 1 1
          1 1 1 1 1 1
          1 1 1 1 1 1
          1 1 1 1 1 1
          1 1 1 1 1 1
          1 1 1 1 1 1
          1 1 1 1 1 1
          1 1 1 1 1 1
          1 1 1 1 1 1
          1 1 1 1 1 1
          1 1 1 1 1 1
          1 1 1 1 1 1
          1 1 1 1 1 1
          1 1 1 1 1 1
          1 1 1 1 1 1
          1 1 1 1 1 1
          1 1 1 1 1 1
          1 1 1 1 1 1
          1 1 1 1 1 1
          1 1 1 1 1 1
          1 1 1 1 1 1
          1 1 1 1 1 1
          1 1 1 1 1 1
          1 1 1 1 1 1
          1 1 1 1 1 1
          1 1 1 1 1 1
          1 1 1 1 1 1
          1 1 1 1 1 1
          1 1 1 1 1 1
          1 1 1 1 1 1
          1 1 1 1 1 1
          1 1 1 1 1 1
          1 1 1 1 1 1
          1 1 1 1 1 1
          1 1 1 1 1 1
          1 1 1 1 1 1
          1 1 1 1 1 1
          1 1 1 1 1 1
          1 1 1 1 1 1
          1 1 1 1 1 1
          1 1 1 1 1 1
          1 1 1 1 1 1
          1 1 1 1 1 1
          1 1 1 1 1 1
          1 1 1 1 1 1
          1 1 1 1 1 1
          1 1 1 1 1 1
          1 1 1 1 1 1
          1 1 1 1 1 1
          1 1 1 1 1 1
          1 1 1 1 1 1
          1 1 1 1 1 1
          1 1 1 1 1 1
          1 1 1 1 1 1
          1 1 1 1 1 1
          1 1 1 1 1 1
          1 1 1 1 1 1
          1 1 1 1 1 1
          1 1 1 1 1 1
          1 1 1 1 1 1
          1 1 1 1 1 1
          1 1 1 1 1 1
          1 1 1 1 1 1
          1 1 1 1 1 1
          1 1 1 1 1 1
          1 1 1 1 1 1
          1 1 1 1 1 1
          1 1 1 1 1 1
          1 1 1 1 1 1
          1 1 1 1 1 1
          1 1 1 1 1 1
          1 1 1 1 1 1
          1 1 1 1 1 1
          1 1 1 1 1 1
          1 1 1 1 1 1
          1 1 1 1 1 1
          1 1 1 1 1 1
          1 1 1 1 1 1
          1 1 1 1 1 1
          1 1 1 1 1 1
          1 1 1 1 1 1
          1 1 1 1 1 1
          1 1 1 1 1 1
          1 1 1 1 1 1
          1 1 1 1 1 1
          1 1 1 1 1 1
          1 1 1 1 1 1
          1 1 1 1 1 1
          1 1 1 1 1 1
          1 1 1 1 1 1
          1 1 1 1 1 1
          1 1 1 1 1 1
          1 1 1 1 1 1
          1 1 1 1 1 1
          1 1 1 1 1 1
          1 1 1 1 1 1
          1 1 1 1 1 1
          1 1 1 1 1 1
          1 1 1 1 1 1
          1 1 1 1 1 1
          1 1 1 1 1 1
          1 1 1 1 1 1
          1 1 1 1 1 1
          1 1 1 1 1 1
          1 1 1 1 1 1
          1 1 1 1 1 1
          1 1 1 1 1 1
          1 1 1 1 1 1
          1 1 1 1 1 1
          1 1 1 1 1 1
          1 1 1 1 1 1
          1 1 1 1 1 1
          1 1 1 1 1 1
          1 1 1 1 1 1
          1 1 1 1 1 1
          1 1 1 1 1 1
          1 1 1 1 1 1
          1 1 1 1 1 1
          1 1 1 1 1 1
          1 1 1 1 1 1
          1 1 1 1 1 1
          1 1 1 1 1 1
          1 1 1 1 1 1
          1 1 1 1 1 1
          1 1 1 1 1 1
          1 1 1 1 1 1
          1 1 1 1 1 1
          1 1 1 1 1 1
          1 1 1 1 1 1
          1 1 1 1 1 1
          1 1 1 1 1 1
          1 1 1 1 1 1
          1 1 1 1 1 1
          1 1 1 1 1 1
          1 1 1 1 1 1
          1 1 1 1 1 1
          1 1 1 1 1 1
          1 1 1 1 1 1
          1 1 1 1 1 1
          1 1 1 1 1 1
          1 1 1 1 1 1
          1 1 1 1 1 1
          1 1 1 1 1 1
          1 1 1 1 1 1
          1 1 1 1 1 1
          1 1 1 1 1 1
          1 1 1 1 1 1
          1 1 1 1 1 1
          1 1 1 1 1 1
          1 1 1 1 1 1
          1 1 1 1 1 1
          1 1 1 1 1 1
          1 1 1 1 1 1
          1 1 1 1 1 1
          1 1 1 1 1 1
          1 1 1 1 1 1
          1 1 1 1 1 1
          1 1 1 1 1 1
          1 1 1 1 1 1
          1 1 1 1 1 1
          1 1 1 1 1 1
          1 1 1 1 1 1
          1 1 1 1 1 1
          1 1 1 1 1 1
          1 1 1 1 1 1
          1 1 1 1 1 1
          1 1 1 1 1 1
          1 1 1 1 1 1
          1 1 1 1 1 1
          1 1 1 1 1 1
          1 1 1 1 1 1
          1 1 1 1 1 1
          1 1 1 1 1 1
          1 1 1 1 1 1
          1 1 1 1 1 1
          1 1 1 1 1 1
          1 1 1 1 1 1
          1 1 1 1 1 1
          1 1 1 1 1 1
          1 1 1 1
        </DataArray>
        <DataArray type="Float64" Name="diameter" format="ascii" RangeMin="1.0053747075e-06" RangeMax="1.3594225272e-06">
          1.2366487747e-06 1.1464026826e-06 1.180463555e-06 1.2194940159e-06 1.0457588092e-06 1.2048201202e-06
          1.3517194201e-06 1.2971595933e-06 1.1000365887e-06 1.286406013e-06 1.2384712553e-06 1.1806620182e-06
          1.2690365117e-06 1.0654380921e-06 1.1474918659e-06 1.2933305305e-06 1.2340702393e-06 1.1503192943e-06
          1.2654521041e-06 1.3265298023e-06 1.1244168749e-06 1.3183541458e-06 1.2502810449e-06 1.2804716515e-06
          1.2457610535e-06 1.2144757482e-06 1.2133547105e-06 1.1345969797e-06 1.1663468267e-06 1.1566228873e-06
          1.1154032186e-06 1.1295183203e-06 1.2926031624e-06 1.0795355999e-06 1.3070054795e-06 1.2258885682e-06
          1.3169654932e-06 1.1637141523e-06 1.1125759145e-06 1.2514147111e-06 1.1884935018e-06 1.3347502675e-06
          1.1334460797e-06 1.1135972944e-06 1.3432810508e-06 1.3194268549e-06 1.2106655699e-06 1.2776424758e-06
          1.1430296742e-06 1.1487306518e-06 1.147159461e-06 1.1678066976e-06 1.3282216864e-06 1.2753686649e-06
          1.0586233766e-06 1.2579378714e-06 1.252187465e-06 1.2633435144e-06 1.065966528e-06 1.3278215561e-06
          1.1432871441e-06 1.118209818e-06 1.1397294136e-06 1.1933509205e-06 1.0993437188e-06 1.2423221196e-06
          1.2063260951e-06 1.2784152805e-06 1.1269286924e-06 1.291875377e-06 1.0785098203e-06 1.2600022204e-06
          1.0852542496e-06 1.2020689719e-06 1.1054597297e-06 1.0430585389e-06 1.1990376641e-06 1.1415152017e-06
          1.1319100359e-06 1.108713075e-06 1.2504281594e-06 1.2516113508e-06 1.0961769697e-06 1.2532978517e-06
          1.3289544261e-06 1.2333858318e-06 1.2122478378e-06 1.0604766527e-06 1.1604215512e-06 1.3448425592e-06
          1.0877038466e-06 1.1251101532e-06 1.2414625069e-06 1.3389058181e-06 1.3030577849e-06 1.0662710077e-06
          1.3216815738e-06 1.1235860065e-06 1.2824063445e-06 1.1522922861e-06 1.1659828485e-06 1.2880080707e-06
          1.2112941162e-06 1.2546737986e-06 1.0113242068e-06 1.1921557989e-06 1.293334711e-06 1.3481855308e-06
          1.185571458e-06 1.3185693108e-06 1.1934916583e-06 1.110384959e-06 1.1243615603e-06 1.1167660777e-06
          1.3473100536e-06 1.1814578415e-06 1.3178883966e-06 1.0725320975e-06 1.2315453422e-06 1.2268671555e-06
          1.1205480641e-06 1.0978727666e-06 1.0624534532e-06 1.168501117e-06 1.1998386884e-06 1.1956474098e-06
          1.1398498719e-06 1.1451359314e-06 1.2756189788e-06 1.0475632582e-06 1.1968938398e-06 1.1540784582e-06
          1.1312522119e-06 1.1868617732e-06 1.0987999442e-06 1.0826383671e-06 1.3136591001e-06 1.1552311651e-06
          1.132808418e-06 1.1250227726e-06 1.0970839905e-06 1.2027238594e-06 1.1132629945e-06 1.275458251e-06
          1.1386767287e-06 1.293989382e-06 1.2589526245e-06 1.3116950518e-06 1.2551063723e-06 1.1259110339e-06
          1.3186646029e-06 1.3114618654e-06 1.1116593184e-06 1.049614443e-06 1.1131249073e-06 1.2866208351e-06
          1.124100991e-06 1.3155889586e-06 1.1557660654e-06 1.1780295585e-06 1.3160017863e-06 1.0908689168e-06
          1.1229492976e-06 1.0915565738e-06 1.2573916478e-06 1.1396168247e-06 1.2103387105e-06 1.1807534928e-06
          1.1857481405e-06 1.2844326981e-06 1.3580847086e-06 1.2697779072e-06 1.0767572586e-06 1.0596898337e-06
          1.1303085337e-06 1.2039399742e-06 1.1633747803e-06 1.1259276547e-06 1.164115938e-06 1.3567930513e-06
          1.3541371631e-06 1.3289514812e-06 1.2864594542e-06 1.2525513349e-06 1.2628024147e-06 1.3389609846e-06
          1.3194892835e-06 1.1426394842e-06 1.2920000662e-06 1.1015640304e-06 1.3494301849e-06 1.1847186002e-06
          1.2591924483e-06 1.3267439859e-06 1.2444588677e-06 1.1414070879e-06 1.0840053036e-06 1.306324042e-06
          1.078863472e-06 1.1388627658e-06 1.3308083091e-06 1.3590199944e-06 1.1510325272e-06 1.2046099672e-06
          1.1271554757e-06 1.2923139416e-06 1.3524892305e-06 1.1299061853e-06 1.1021130653e-06 1.270425409e-06
          1.3055590506e-06 1.3082311778e-06 1.1299683052e-06 1.2266775389e-06 1.0253228325e-06 1.1400315225e-06
          1.3594225272e-06 1.1151844816e-06 1.2361304264e-06 1.064105078e-06 1.3401932128e-06 1.3081445081e-06
          1.1454276238e-06 1.2900829482e-06 1.263375463e-06 1.097336549e-06 1.2601599781e-06 1.2864182594e-06
          1.0746516523e-06 1.2089829399e-06 1.0590764531e-06 1.3387398622e-06 1.2597042942e-06 1.3219006617e-06
          1.196014745e-06 1.3114687883e-06 1.0802723199e-06 1.1614076866e-06 1.2130544265e-06 1.1105053691e-06
          1.2573398075e-06 1.1483488238e-06 1.2331918475e-06 1.357886848e-06 1.1842566152e-06 1.1626967895e-06
          1.208333347e-06 1.3160545155e-06 1.1712140434e-06 1.2217599867e-06 1.1701480941e-06 1.2104941004e-06
          1.2829548459e-06 1.1116143806e-06 1.1693479348e-06 1.2082887426e-06 1.1169475924e-06 1.2894016057e-06
          1.2481858629e-06 1.2871378268e-06 1.2161336792e-06 1.3317111955e-06 1.2142128017e-06 1.0576509882e-06
          1.3201306813e-06 1.2338502844e-06 1.1199557691e-06 1.0589094872e-06 1.2074899585e-06 1.1835297559e-06
          1.1508565617e-06 1.1324001791e-06 1.0958874029e-06 1.1882600419e-06 1.164706524e-06 1.2297752994e-06
          1.0947021874e-06 1.1717484096e-06 1.1652821118e-06 1.2447882351e-06 1.2024756481e-06 1.0647347793e-06
          1.160747176e-06 1.2031259355e-06 1.225124865e-06 1.1561973121e-06 1.2098232059e-06 1.1987595107e-06
          1.1904181044e-06 1.2554401817e-06 1.2249670549e-06 1.1655002207e-06 1.1909515124e-06 1.2090489175e-06
          1.2943714907e-06 1.2030223595e-06 1.2168410691e-06 1.1318198377e-06 1.1977495805e-06 1.3107414652e-06
          1.0973601422e-06 1.1563933012e-06 1.236252007e-06 1.1298617393e-06 1.1606226481e-06 1.2471954863e-06
          1.2233971613e-06 1.2348101018e-06 1.1406071903e-06 1.2045395434e-06 1.2924771716e-06 1.1838481903e-06
          1.1461943598e-06 1.1402457247e-06 1.1363266459e-06 1.0837836394e-06 1.2145634291e-06 1.2114193347e-06
          1.1259636547e-06 1.0988025557e-06 1.1555913759e-06 1.1145011837e-06 1.1879685189e-06 1.0925856579e-06
          1.132619899e-06 1.1047325956e-06 1.1581895393e-06 1.2306849078e-06 1.0776959368e-06 1.1339429361e-06
          1.1730124312e-06 1.128708082e-06 1.1380444977e-06 1.1653574833e-06 1.0933106021e-06 1.1117663671e-06
          1.2071310663e-06 1.1041309014e-06 1.2031158724e-06 1.1530588621e-06 1.0624879003e-06 1.1207748802e-06
          1.2136980703e-06 1.1111518728e-06 1.157216667e-06 1.187674873e-06 1.0743950159e-06 1.1934099012e-06
          1.1962294115e-06 1.2304787337e-06 1.2447240596e-06 1.1687262889e-06 1.1400664687e-06 1.1237529899e-06
          1.1626506905e-06 1.1378087947e-06 1.0930645669e-06 1.10672877e-06 1.1340565599e-06 1.1031314678e-06
          1.1313035663e-06 1.0352997376e-06 1.0658494446e-06 1.0607920113e-06 1.1070766023e-06 1.1268463124e-06
          1.038927558e-06 1.1443594277e-06 1.0490291542e-06 1.1006003829e-06 1.1294910663e-06 1.071084145e-06
          1.1181685967e-06 1.0508510544e-06 1.1564634338e-06 1.0389870625e-06 1.0704718251e-06 1.0494982116e-06
          1.0568933639e-06 1.0353133748e-06 1.0626449812e-06 1.0351270266e-06 1.0851758406e-06 1.1102583674e-06
          1.0460497169e-06 1.0502808451e-06 1.0786813983e-06 1.1688039856e-06 1.123023897e-06 1.0937646747e-06
          1.0584079516e-06 1.1312006831e-06 1.0350589841e-06 1.0650701058e-06 1.1851681319e-06 1.1211682882e-06
          1.1072720871e-06 1.1670340117e-06 1.1874436936e-06 1.0690352152e-06 1.0061221662e-06 1.1270819761e-06
          1.1279766974e-06 1.1172313816e-06 1.0798410919e-06 1.1152379762e-06 1.3516182687e-06 1.3188392414e-06
          1.1268995983e-06 1.3395341815e-06 1.2173167814e-06 1.1772966859e-06 1.3548802174e-06 1.0719093244e-06
          1.2474733141e-06 1.1388314384e-06 1.3570238804e-06 1.3408243318e-06 1.2171180102e-06 1.2240039143e-06
          1.0322263177e-06 1.290871583e-06 1.3259402921e-06 1.1494841676e-06 1.2284250833e-06 1.0053747075e-06
          1.2141073347e-06 1.2602742102e-06 1.2868418533e-06 1.2251238131e-06 1.1415557253e-06 1.3305579659e-06
          1.2092529079e-06 1.0713407694e-06 1.2527316973e-06 1.3445430985e-06 1.3222920591e-06 1.2150444144e-06
          1.2770973227e-06 1.085335148e-06 1.0467412267e-06 1.1225935388e-06 1.2024874785e-06 1.1884236389e-06
          1.1946280177e-06 1.2358253588e-06 1.2794149282e-06 1.1088315447e-06 1.318823705e-06 1.2086014512e-06
          1.357094164e-06 1.3078332999e-06 1.323861958e-06 1.1696279284e-06 1.2525957604e-06 1.1901310081e-06
          1.179736288e-06 1.3339456829e-06 1.2655488031e-06 1.2143546434e-06 1.1430928219e-06 1.2660406938e-06
          1.1962570001e-06 1.0548449142e-06 1.1124850313e-06 1.2398384067e-06 1.1254569959e-06 1.25757475e-06
          1.2694673593e-06 1.0665736846e-06 1.2803286311e-06 1.2279423396e-06 1.2241938675e-06 1.3369346892e-06
          1.3135253682e-06 1.2949416486e-06 1.2072333836e-06 1.2522753115e-06 1.153105579e-06 1.0333607309e-06
          1.2957537883e-06 1.2674812744e-06 1.1884722713e-06 1.0723623386e-06 1.2028264267e-06 1.2623968638e-06
          1.2351070047e-06 1.1948478943e-06 1.1340264439e-06 1.2886843898e-06 1.3180505312e-06 1.1755096789e-06
          1.3478805027e-06 1.259268645e-06 1.2524181415e-06 1.1394705186e-06 1.1832275918e-06 1.1986673176e-06
          1.3067175307e-06 1.0593752084e-06 1.0414025067e-06 1.2666341564e-06 1.14349399e-06 1.1499122728e-06
          1.1769259642e-06 1.0894362591e-06 1.2079834604e-06 1.117219978e-06 1.2599471311e-06 1.3339348193e-06
          1.3372649819e-06 1.2255655056e-06 1.2511369162e-06 1.3539360132e-06 1.2764966779e-06 1.0535522102e-06
          1.3262708708e-06 1.2885971355e-06 1.1695132135e-06 1.2626758636e-06 1.3517458321e-06 1.2509661141e-06
          1.1563418499e-06 1.2485755728e-06 1.1859370866e-06 1.1716096117e-06 1.2925339837e-06 1.0582211571e-06
          1.2573205325e-06 1.3069529144e-06 1.1782412099e-06 1.3588206779e-06 1.2014977428e-06 1.1955447806e-06
          1.1085617642e-06 1.2806416372e-06 1.1807536952e-06 1.1871136801e-06 1.1637192989e-06 1.2634550372e-06
          1.244956315e-06 1.2041325511e-06 1.0135884132e-06 1.1642020454e-06 1.1911399093e-06 1.2170885912e-06
          1.1609847903e-06 1.1832430561e-06 1.2367219514e-06 1.1021243661e-06 1.346355544e-06 1.2844933221e-06
          1.0831757484e-06 1.2318885656e-06 1.2101597117e-06 1.0561855633e-06 1.1624424634e-06 1.322037294e-06
          1.3193819204e-06 1.3007665185e-06 1.0943967179e-06 1.1922960923e-06 1.0751699236e-06 1.1841419493e-06
          1.3418215566e-06 1.3187929936e-06 1.2355877827e-06 1.3498183701e-06 1.2470919621e-06 1.3144459698e-06
          1.1709218513e-06 1.1102690922e-06 1.2168342389e-06 1.2177554927e-06 1.2321664146e-06 1.1639727934e-06
          1.1510993725e-06 1.3004690235e-06 1.3564885843e-06 1.329748431e-06 1.3304561613e-06 1.2774081499e-06
          1.2847653268e-06 1.2918288523e-06 1.3361998216e-06 1.2802728945e-06 1.2965089366e-06 1.1998130877e-06
          1.1598992532e-06 1.2906306453e-06 1.1699869199e-06 1.1262890641e-06 1.2121993399e-06 1.3274294439e-06
          1.244746324e-06 1.1364363451e-06 1.1638867002e-06 1.2155155985e-06 1.1602903999e-06 1.1390101172e-06
          1.1191885326e-06 1.1177550027e-06 1.3162879777e-06 1.1828901017e-06 1.0584739797e-06 1.2283068792e-06
          1.1747310069e-06 1.1245685555e-06 1.3148139483e-06 1.1793603194e-06 1.2296245284e-06 1.25214583e-06
          1.1999886179e-06 1.2321394406e-06 1.1372358973e-06 1.2383038377e-06 1.1539986881e-06 1.320655436e-06
          1.1141943813e-06 1.1317926278e-06 1.2029014648e-06 1.3216215149e-06 1.2966519811e-06 1.1687432029e-06
          1.1810990523e-06 1.2016423714e-06 1.2370207726e-06 1.3212719188e-06 1.0735156306e-06 1.1896511524e-06
          1.2348824616e-06 1.0874010673e-06 1.1622247682e-06 1.1640445114e-06 1.2451009339e-06 1.1901180614e-06
          1.0625756655e-06 1.2652731328e-06 1.1019568541e-06 1.142176576e-06 1.3036046454e-06 1.0727818718e-06
          1.2665835056e-06 1.1337737502e-06 1.2777863644e-06 1.3434775438e-06 1.1408520796e-06 1.3278574826e-06
          1.2901476269e-06 1.0920912019e-06 1.2051656284e-06 1.2478422125e-06 1.1542577882e-06 1.0807372207e-06
          1.1069281672e-06 1.0728504257e-06 1.3303985821e-06 1.057707188e-06 1.1099041646e-06 1.141278119e-06
          1.2250526703e-06 1.2240283659e-06 1.1239900437e-06 1.1872843154e-06 1.1724350963e-06 1.0349323183e-06
          1.0549223088e-06 1.1893915776e-06 1.1416015354e-06 1.3072649114e-06 1.3233008327e-06 1.2901870904e-06
          1.14799954e-06 1.092062936e-06 1.3197757547e-06 1.1244454452e-06 1.2168201897e-06 1.0585585588e-06
          1.2188125856e-06 1.1513904868e-06 1.1163754043e-06 1.1318557706e-06 1.1697543e-06 1.1738318884e-06
          1.2355249497e-06 1.3406697317e-06 1.097743565e-06 1.3190223251e-06 1.102226844e-06 1.10537296e-06
          1.1547757974e-06 1.240485922e-06 1.142414947e-06 1.0909589261e-06 1.3163851969e-06 1.0238148084e-06
          1.1013338104e-06 1.337197864e-06 1.100974565e-06 1.2408312088e-06 1.332971515e-06 1.1385339543e-06
          1.1394514418e-06 1.3256695035e-06 1.3417216186e-06 1.114764355e-06 1.1961051279e-06 1.0814566496e-06
          1.3339227048e-06 1.0849193061e-06 1.3349365488e-06 1.3336492079e-06 1.06409528e-06 1.1009024724e-06
          1.1389624908e-06 1.2766192971e-06 1.3259310424e-06 1.3060643342e-06 1.3095525139e-06 1.0669108178e-06
          1.1533449898e-06 1.3088096965e-06 1.3143849717e-06 1.1501006997e-06 1.1359435231e-06 1.0110606615e-06
          1.2664883251e-06 1.1944591189e-06 1.2456354829e-06 1.0734852934e-06 1.3350615894e-06 1.1846876896e-06
          1.2590506899e-06 1.1487599763e-06 1.257953122e-06 1.3001486994e-06 1.0252736597e-06 1.2992806502e-06
          1.2295664207e-06 1.0855693499e-06 1.3301262321e-06 1.1603760312e-06 1.2843182764e-06 1.1670127282e-06
          1.3343459222e-06 1.0244263099e-06 1.2273912072e-06 1.0751878186e-06 1.1683491146e-06 1.2060794516e-06
          1.1504362691e-06 1.2982866088e-06 1.3404291183e-06 1.348818209e-06 1.0682050531e-06 1.358462172e-06
          1.2581055471e-06 1.3357761192e-06 1.2972446111e-06 1.3149483292e-06 1.206462814e-06 1.3035408828e-06
          1.2602125572e-06 1.3256858596e-06 1.179463258e-06 1.2528080109e-06 1.1744600862e-06 1.3034992679e-06
          1.2523186942e-06 1.2769140413e-06 1.3129214638e-06 1.2755659552e-06 1.297234113e-06 1.061367757e-06
          1.2080886307e-06 1.3058034945e-06 1.2621517843e-06 1.2452363086e-06 1.2177963452e-06 1.1828064802e-06
          1.1675897784e-06 1.2631856906e-06 1.1390150062e-06 1.2093381106e-06 1.2176310299e-06 1.197609284e-06
          1.2742755475e-06 1.2055846114e-06 1.2182557302e-06 1.2092863067e-06 1.2492353588e-06 1.1984174769e-06
          1.225751199e-06 1.1906516275e-06 1.3001889108e-06 1.1699448792e-06 1.1653513954e-06 1.2857236614e-06
          1.2037037564e-06 1.2118279416e-06 1.3412134429e-06 1.2777657512e-06 1.2432200566e-06 1.1980859357e-06
          1.2268811634e-06 1.2919830113e-06 1.1542730297e-06 1.2068783087e-06 1.1919423505e-06 1.3110410996e-06
          1.3011217409e-06 1.1147937369e-06 1.226491311e-06 1.3189589771e-06 1.1785234609e-06 1.2374003535e-06
          1.2671757442e-06 1.3265391311e-06 1.1488890354e-06 1.2128210682e-06 1.3314945537e-06 1.1943872299e-06
          1.2314640151e-06 1.3176463313e-06 1.1965272613e-06 1.2119916344e-06 1.3163650674e-06 1.3156373462e-06