<?xml version="1.0"?>
<VTKFile type="UnstructuredGrid" version="0.1" byte_order="LittleEndian" header_type="UInt32" compressor="vtkZLibDataCompressor">
  <UnstructuredGrid>
    <Piece NumberOfPoints="579" NumberOfCells="579">
      <PointData>
        <DataArray type="Int32" Name="id" format="ascii" RangeMin="1" RangeMax="579">
          8 6 5 11 12 13
          21 22 23 32 33 34
          44 45 46 47 48 49
          57 58 67 68 78 79
          80 81 82 83 94 95
          96 97 98 99 113 114
          115 116 117 118 138 139
          140 141 142 143 144 145
          160 161 162 163 164 165
          166 167 168 189 190 191
          192 193 194 195 196 229
          230 231 232 233 234 235
          236 237 238 239 240 241
          242 243 274 275 276 277
          278 279 280 281 282 283
          284 285 286 287 313 314
          315 316 317 318 319 320
          321 322 323 324 371 372
          373 374 375 376 377 378
          379 380 381 382 383 384
          385 386 447 448 449 450
          451 452 453 454 455 456
          457 458 459 460 461 462
          463 464 465 466 467 510
          511 512 513 514 515 516
          517 518 519 520 521 522
          523 524 525 526 527 528
          529 530 531 9 4 3
          7 14 15 16 17 24
          25 26 30 31 35 36
          37 41 50 51 52 53
          54 59 60 61 62 63
          69 70 71 72 84 85
          86 87 88 89 100 101
          102 103 104 105 106 107
          119 120 121 122 123 124
          125 126 127 128 129 130
          146 147 148 149 150 151
          169 170 171 172 173 174
          175 176 177 178 179 197
          198 199 200 201 202 203
          204 205 206 207 208 209
          210 211 212 213 214 215
          216 244 245 246 247 248
          249 250 251 252 253 254
          255 256 257 258 259 260
          261 288 289 290 291 292
          293 294 295 296 297 298
          299 300 301 325 326 327
          328 329 330 331 332 333
          334 335 336 337 338 339
          340 341 342 343 344 345
          346 347 387 388 389 390
          391 392 393 394 395 396
          397 398 399 400 401 402
          403 404 405 406 407 408
          409 410 411 412 413 414
          415 416 417 418 419 420
          421 422 423 468 469 470
          471 472 473 474 475 476
          477 478 479 480 481 482
          483 484 485 486 487 488
          489 490 491 492 493 494
          495 496 532 533 534 535
          536 537 538 539 540 541
          542 543 544 545 546 547
          548 549 550 551 552 553
          554 555 556 557 558 559
          10 1 18 19 27 28
          38 39 42 55 56 64
          73 74 75 76 77 90
          108 109 110 111 112 131
          132 133 152 153 154 155
          156 157 180 181 182 183
          184 185 217 218 219 220
          221 222 223 224 262 263
          264 265 266 267 268 302
          303 304 305 306 307 308
          348 349 350 351 352 353
          354 355 356 357 358 359
          360 361 362 363 424 425
          426 427 428 429 430 431
          432 433 434 435 436 437
          497 498 499 500 501 502
          503 560 561 562 563 564
          565 566 567 568 569 570
          571 572 573 574 2 20
          29 40 43 65 66 91
          92 93 134 135 136 137
          158 159 186 187 188 225
          226 227 228 269 270 271
          272 273 309 310 311 312
          364 365 366 367 368 369
          370 438 439 440 441 442
          443 444 445 446 504 505
          506 507 508 509 575 576
          577 578 579
        </DataArray>
        <DataArray type="Int32" Name="type" format="ascii" RangeMin="1" RangeMax="1">
          1 1 1 1 1 1
          1 1 1 1 1 1
          1 1 1 1 1 1
          1 1 1 1 1 1
          1 1 1 1 1 1
          1 1 1 1 1 1
          1 1 1 1 1 1
          1 1 1 1 1 1
          1 1 1 1 1 1
          1 1 1 1 1 1
          1 1 1 1 1 1
          1 1 1 1 1 1
          1 1 1 1 1 1
          1 1 1 1 1 1
          1 1 1 1 1 1
          1 1 1 1 1 1
          1 1 1 1 1 1
          1 1 1 1 1 1
          1 1 1 1 1 1
          1 1 1 1 1 1
          1 1 1 1 1 1
          1 1 1 1 1 1
          1 1 1 1 1 1
          1 1 1 1 1 1
          1 1 1 1 1 1
          1 1 1 1 1 1
          1 1 1 1 1 1
          1 1 1 1 1 1
          1 1 1 1 1 1
          1 1 1 1 1 1
          1 1 1 1 1 1
          1 1 1 1 1 1
          1 1 1 1 1 1
          1 1 1 1 1 1
          1 1 1 1 1 1
          1 1 1 1 1 1
          1 1 1 1 1 1
          1 1 1 1 1 1
          1 1 1 1 1 1
          1 1 1 1 1 1
          1 1 1 1 1 1
          1 1 1 1 1 1
          1 1 1 1 1 1
          1 1 1 1 1 1
          1 1 1 1 1 1
          1 1 1 1 1 1
          1 1 1 1 1 1
          1 1 1 1 1 1
          1 1 1 1 1 1
          1 1 1 1 1 1
          1 1 1 1 1 1
          1 1 1 1 1 1
          1 1 1 1 1 1
          1 1 1 1 1 1
          1 1 1 1 1 1
          1 1 1 1 1 1
          1 1 1 1 1 1
          1 1 1 1 1 1
          1 1 1 1 1 1
          1 1 1 1 1 1
          1 1 1 1 1 1
          1 1 1 1 1 1
          1 1 1 1 1 1
          1 1 1 1 1 1
          1 1 1 1 1 1
          1 1 1 1 1 1
          1 1 1 1 1 1
          1 1 1 1 1 1
          1 1 1 1 1 1
          1 1 1 1 1 1
          1 1 1 1 1 1
          1 1 1 1 1 1
          1 1 1 1 1 1
          1 1 1 1 1 1
          1 1 1 1 1 1
          1 1 1 1 1 1
          1 1 1 1 1 1
          1 1 1 1 1 1
          1 1 1 1 1 1
          1 1 1 1 1 1
          1 1 1 1 1 1
          1 1 1 1 1 1
          1 1 1 1 1 1
          1 1 1 1 1 1
          1 1 1 1 1 1
          1 1 1 1 1 1
          1 1 1 1 1 1
          1 1 1 1 1 1
          1 1 1 1 1 1
          1 1 1 1 1 1
          1 1 1 1 1 1
          1 1 1 1 1 1
          1 1 1 1 1 1
          1 1 1 1 1 1
          1 1 1 1 1 1
          1 1 1 1 1 1
          1 1 1
        </DataArray>
        <DataArray type="Float64" Name="diameter" format="ascii" RangeMin="1.0111140744e-06" RangeMax="1.3596453914e-06">
          1.2768115349e-06 1.293471324e-06 1.3182771392e-06 1.1404992632e-06 1.3289371429e-06 1.1981245371e-06
          1.144154078e-06 1.2401130996e-06 1.2822562611e-06 1.1168173203e-06 1.2583632106e-06 1.1499163288e-06
          1.1375869858e-06 1.1295582362e-06 1.053540786e-06 1.1910737679e-06 1.3303083713e-06 1.1705780296e-06
          1.311035731e-06 1.0517762795e-06 1.1411215874e-06 1.3424332109e-06 1.2732038015e-06 1.2703525083e-06
          1.226083903e-06 1.2945736457e-06 1.156401381e-06 1.1625189889e-06 1.2681143873e-06 1.1317573115e-06
          1.2876045361e-06 1.2568072647e-06 1.3269684422e-06 1.1599919922e-06 1.1674953832e-06 1.1627853848e-06
          1.3034039934e-06 1.1711640724e-06 1.1383575155e-06 1.3216366127e-06 1.3255379928e-06 1.0624937209e-06
          1.3132892478e-06 1.151705473e-06 1.0692844322e-06 1.3315413312e-06 1.1947542776e-06 1.3202050785e-06
          1.2176775547e-06 1.2406881597e-06 1.1209911585e-06 1.3439546715e-06 1.2136096361e-06 1.241773907e-06
          1.2375980955e-06 1.2496024122e-06 1.1680268797e-06 1.2896873791e-06 1.0837430083e-06 1.2782983897e-06
          1.1843037757e-06 1.1626899602e-06 1.1544154894e-06 1.130086042e-06 1.1166821829e-06 1.0821615962e-06
          1.2234110768e-06 1.3174020281e-06 1.162746079e-06 1.2026998222e-06 1.1230456298e-06 1.1408794548e-06
          1.3514684857e-06 1.1368506777e-06 1.15121374e-06 1.0878402585e-06 1.1882378064e-06 1.3507414572e-06
          1.1030919239e-06 1.1702026016e-06 1.1055589174e-06 1.2810660962e-06 1.3490392456e-06 1.315911099e-06
          1.05788009e-06 1.2453919828e-06 1.3002158971e-06 1.1116954814e-06 1.3194455015e-06 1.3405175515e-06
          1.3523985613e-06 1.2898420217e-06 1.3143209793e-06 1.2828896126e-06 1.0346567935e-06 1.2167384689e-06
          1.3510853858e-06 1.2120627767e-06 1.244347032e-06 1.2375025077e-06 1.2580283564e-06 1.2945144221e-06
          1.3532343327e-06 1.3075909224e-06 1.290330022e-06 1.3300246605e-06 1.1759475981e-06 1.189655364e-06
          1.2741067119e-06 1.1653005071e-06 1.2982747908e-06 1.1248405105e-06 1.1491843862e-06 1.246614768e-06
          1.2299532194e-06 1.1937854512e-06 1.2915874318e-06 1.2666609241e-06 1.1663014741e-06 1.1779179027e-06
          1.2880014091e-06 1.2537558288e-06 1.2125675711e-06 1.2132863281e-06 1.169731431e-06 1.2226837866e-06
          1.1421861657e-06 1.2345166158e-06 1.1951300131e-06 1.107931542e-06 1.1480909802e-06 1.2034601695e-06
          1.1650341967e-06 1.170611186e-06 1.0852604629e-06 1.1649829873e-06 1.2083128245e-06 1.1869448072e-06
          1.0931840528e-06 1.1172747797e-06 1.2329446966e-06 1.1557316516e-06 1.0862498288e-06 1.1337436392e-06
          1.0883177161e-06 1.0274562803e-06 1.0475669087e-06 1.0441412077e-06 1.1889985024e-06 1.025506673e-06
          1.0455401361e-06 1.039829244e-06 1.1111516775e-06 1.064889743e-06 1.1367621701e-06 1.1641004645e-06
          1.0846103488e-06 1.0472408523e-06 1.1115349989e-06 1.0483611191e-06 1.0475694732e-06 1.0737555812e-06
          1.1251477797e-06 1.0915621499e-06 1.1348148316e-06 1.1571482226e-06 1.0413225061e-06 1.1540175975e-06
          1.1174061334e-06 1.2833174355e-06 1.2831609394e-06 1.1019046309e-06 1.1914074297e-06 1.3315352169e-06
          1.2268174777e-06 1.0757842727e-06 1.0540021261e-06 1.2576047468e-06 1.2803651763e-06 1.314961579e-06
          1.2163194568e-06 1.2389173852e-06 1.2141683301e-06 1.2513497999e-06 1.2199128035e-06 1.1488956461e-06
          1.2204650817e-06 1.1947052596e-06 1.3062115859e-06 1.1991239753e-06 1.131568818e-06 1.2449299094e-06
          1.3401775602e-06 1.0755989217e-06 1.1264923285e-06 1.3042604452e-06 1.2506579271e-06 1.1340754041e-06
          1.1692451519e-06 1.1195624663e-06 1.206098057e-06 1.2016042044e-06 1.1233189366e-06 1.2905797825e-06
          1.2687923042e-06 1.3111297884e-06 1.2320183511e-06 1.3572074864e-06 1.1653911776e-06 1.2374178785e-06
          1.2622549636e-06 1.2382498187e-06 1.2782632733e-06 1.2652599603e-06 1.197951414e-06 1.1540010224e-06
          1.1189802164e-06 1.2855907553e-06 1.2332340233e-06 1.221706308e-06 1.3185804137e-06 1.2052556217e-06
          1.2442034936e-06 1.2930856914e-06 1.3279214335e-06 1.3485561494e-06 1.1304449063e-06 1.3508588039e-06
          1.2114313651e-06 1.3145032025e-06 1.1793102554e-06 1.220861483e-06 1.2792147736e-06 1.3301158182e-06
          1.2735755306e-06 1.136074713e-06 1.1770016069e-06 1.2959194949e-06 1.2085464617e-06 1.2453634724e-06
          1.1510184903e-06 1.2035551528e-06 1.2905489404e-06 1.1626618343e-06 1.1997599506e-06 1.3472832336e-06
          1.0128258774e-06 1.1708017273e-06 1.2363608632e-06 1.1688339263e-06 1.1075948356e-06 1.1038064268e-06
          1.2542451516e-06 1.3259305053e-06 1.1613561256e-06 1.2255323146e-06 1.1776502721e-06 1.227634518e-06
          1.163650752e-06 1.3576502236e-06 1.268115457e-06 1.1582461144e-06 1.2655371549e-06 1.0367861795e-06
          1.2284768997e-06 1.1201083667e-06 1.1048870444e-06 1.2565784702e-06 1.0828357648e-06 1.2726078549e-06
          1.1321552607e-06 1.2657461042e-06 1.0299524158e-06 1.2526622445e-06 1.1563496179e-06 1.1084069897e-06
          1.075034568e-06 1.270843708e-06 1.3215857682e-06 1.3372527455e-06 1.1200526299e-06 1.1086858925e-06
          1.1609434723e-06 1.0248895195e-06 1.0351448686e-06 1.3545313451e-06 1.1575032886e-06 1.1103839608e-06
          1.1201626247e-06 1.1067964886e-06 1.0581661319e-06 1.3207128744e-06 1.2951428774e-06 1.2931152308e-06
          1.3233615451e-06 1.2606004784e-06 1.2495106817e-06 1.3102521844e-06 1.2640197454e-06 1.351837863e-06
          1.2500608708e-06 1.2960403086e-06 1.0880484431e-06 1.3329269334e-06 1.2033151149e-06 1.2980310145e-06
          1.354280229e-06 1.3402591127e-06 1.2340015545e-06 1.3366131975e-06 1.2640350258e-06 1.2255008865e-06
          1.2078528953e-06 1.2228526249e-06 1.2631908944e-06 1.1605459946e-06 1.2038843388e-06 1.1246221446e-06
          1.2697723762e-06 1.1570228657e-06 1.2822094882e-06 1.3253711914e-06 1.2464107877e-06 1.1358558069e-06
          1.213067194e-06 1.1522181345e-06 1.1333973916e-06 1.2134292834e-06 1.2937929591e-06 1.2216703793e-06
          1.2934712045e-06 1.1907509691e-06 1.2829277517e-06 1.3352505802e-06 1.1251837211e-06 1.2303364302e-06
          1.2398260773e-06 1.1918955328e-06 1.2727927449e-06 1.2922438639e-06 1.2120366514e-06 1.2458704926e-06
          1.2463775455e-06 1.2280629052e-06 1.1886708205e-06 1.2325571708e-06 1.2313955954e-06 1.226034695e-06
          1.1585238009e-06 1.1582683494e-06 1.1661840257e-06 1.1520875161e-06 1.1343132988e-06 1.197880024e-06
          1.1221369635e-06 1.1656254489e-06 1.2250140212e-06 1.1798733345e-06 1.0886768e-06 1.1557925058e-06
          1.1595776996e-06 1.210463237e-06 1.0818897597e-06 1.1283326502e-06 1.1922600495e-06 1.2108248749e-06
          1.1107409929e-06 1.2351790525e-06 1.1707889697e-06 1.0872428456e-06 1.1457178411e-06 1.1365655434e-06
          1.1283978825e-06 1.1582466156e-06 1.1219594695e-06 1.1918466094e-06 1.1180075335e-06 1.2141473139e-06
          1.2238550687e-06 1.1552664918e-06 1.1857318008e-06 1.0859341018e-06 1.1693196061e-06 1.1005380064e-06
          1.1618731217e-06 1.1347275873e-06 1.0845668273e-06 1.0431878226e-06 1.0798515446e-06 1.0249930745e-06
          1.0201751877e-06 1.1584615981e-06 1.0678965817e-06 1.1668469353e-06 1.1039521821e-06 1.0732241063e-06
          1.1561805852e-06 1.1486159169e-06 1.1439527447e-06 1.0599886031e-06 1.0827344367e-06 1.1664667312e-06
          1.1400323535e-06 1.0154821555e-06 1.0867912872e-06 1.1059264397e-06 1.1386162848e-06 1.086413775e-06
          1.3590342261e-06 1.2239944651e-06 1.1726299455e-06 1.1174395715e-06 1.1198383253e-06 1.1813221044e-06
          1.1014211954e-06 1.0868126089e-06 1.3020214039e-06 1.1975303086e-06 1.3491922537e-06 1.1482312104e-06
          1.0870808396e-06 1.308364032e-06 1.2421710446e-06 1.1826571733e-06 1.0431991249e-06 1.3461770814e-06
          1.2182367001e-06 1.251130936e-06 1.1939427863e-06 1.2820915441e-06 1.2534841496e-06 1.3582485046e-06
          1.1096668133e-06 1.356463861e-06 1.257455008e-06 1.3596453914e-06 1.2196610456e-06 1.2749310537e-06
          1.1498741124e-06 1.1479538784e-06 1.3151297268e-06 1.2531428587e-06 1.323617009e-06 1.3203257614e-06
          1.2390282325e-06 1.2363283437e-06 1.1990910456e-06 1.3271746499e-06 1.2481887587e-06 1.181532225e-06
          1.2202025375e-06 1.3022127923e-06 1.2440516956e-06 1.0518772933e-06 1.165719226e-06 1.0871955571e-06
          1.1050360091e-06 1.3529999558e-06 1.2202498137e-06 1.2456679715e-06 1.1112597018e-06 1.1608474382e-06
          1.0644664398e-06 1.2637584013e-06 1.3388404439e-06 1.3354739643e-06 1.1657381788e-06 1.2790185419e-06
          1.2367650028e-06 1.2590401731e-06 1.3058781966e-06 1.263437178e-06 1.3048014649e-06 1.3219343717e-06
          1.2091173018e-06 1.2879076428e-06 1.3457939661e-06 1.3041892506e-06 1.2642971243e-06 1.2643454878e-06
          1.2622824145e-06 1.2361775909e-06 1.1282893072e-06 1.2815302465e-06 1.1478074892e-06 1.2186326113e-06
          1.2628539562e-06 1.2532783458e-06 1.1768959738e-06 1.2434516542e-06 1.1739247413e-06 1.1982662099e-06
          1.1885523944e-06 1.2230244632e-06 1.2409331585e-06 1.2296542965e-06 1.302715749e-06 1.2045992622e-06
          1.1104250711e-06 1.1431135916e-06 1.0598276538e-06 1.1989843181e-06 1.1040172796e-06 1.1844839226e-06
          1.1534506966e-06 1.1049930596e-06 1.0768930523e-06 1.0609398309e-06 1.1584338745e-06 1.1650045108e-06
          1.1417223872e-06 1.1021497857e-06 1.1625862742e-06 1.0418943668e-06 1.0972248501e-06 1.1145437471e-06
          1.0449278902e-06 1.1739929136e-06 1.0183790841e-06 1.0584175962e-06 1.1221053383e-06 1.1548937987e-06
          1.2855918405e-06 1.2462520995e-06 1.2620540718e-06 1.1698263673e-06 1.3552091778e-06 1.1080658957e-06
          1.3155393514e-06 1.0775617663e-06 1.1032434244e-06 1.3043081488e-06 1.176376178e-06 1.3248458945e-06
          1.2808154013e-06 1.0877039169e-06 1.2547088581e-06 1.2894707027e-06 1.2879647004e-06 1.205348281e-06
          1.2111281009e-06 1.2057394264e-06 1.2804438042e-06 1.2092530491e-06 1.2404512171e-06 1.3324425267e-06
          1.2126534954e-06 1.1469835594e-06 1.2988550142e-06 1.1588429326e-06 1.1309955143e-06 1.3002904848e-06
          1.3032125695e-06 1.3128510755e-06 1.2714566367e-06 1.3019261709e-06 1.2810762579e-06 1.3104264781e-06
          1.3475099055e-06 1.2619612897e-06 1.2555048436e-06 1.2469489944e-06 1.2929458183e-06 1.2498912373e-06
          1.1675941916e-06 1.2137030697e-06 1.2772021116e-06 1.1885659945e-06 1.0893647125e-06 1.1931711736e-06
          1.2390241151e-06 1.1724977416e-06 1.1468661105e-06 1.1731830619e-06 1.0111140744e-06 1.1026619795e-06
          1.0556578994e-06 1.1791710584e-06 1.0434591063e-06
        </DataArray>
      </PointData>
      <CellData>
      </CellData>
      <Points>
        <DataArray type="Float32" Name="Points" NumberOfComponents="3" format="ascii" RangeMin="8.3680445745e-05" RangeMax="0.00025644237678">
          5.2605806559e-05 4.8528923799e-05 5.0747723435e-05 2.8585127438e-05 6.4213018049e-05 5.2000577853e-05
          4.1644336306e-05 7.4695250078e-05 5.2241848607e-05 5.2331393817e-05 4.596681174e-05 4.7905123211e-05
          3.0031898859e-05 6.5027357778e-05 4.9187718105e-05 4.2927520553e-05 7.5005758845e-05 5.0182952691e-05
          2.8513823054e-05 6.2887673266e-05 5.1998988056e-05 5.356215479e-05 4.4468270062e-05 4.9763882998e-05
          4.015471859e-05 7.4482937634e-05 4.9699472584e-05 5.1474093198e-05 4.7030396672e-05 4.8737048928e-05
          4.0215425543e-05 7.5525189459e-05 5.0061109505e-05 3.0471561331e-05 6.0893868067e-05 4.8639878514e-05
          3.0760085792e-05 6.3119165134e-05 4.8335296015e-05 5.3213701904e-05 4.5239208703e-05 4.862199421e-05
          4.3559368351e-05 7.5769683463e-05 4.7967765568e-05 2.911304e-05 6.3566913013e-05 5.1983457524e-05
          5.2834944654e-05 4.6655201004e-05 5.2364302974e-05 4.2438263335e-05 7.3767572758e-05 4.9046571803e-05
          5.3865562222e-05 4.6998211474e-05 5.1936265663e-05 3.1026407669e-05 6.2496095779e-05 4.9051657697e-05
          4.2636755097e-05 7.2933042247e-05 5.078256072e-05 4.2352661694e-05 7.5223644671e-05 4.9426384066e-05
          5.2107952797e-05 4.7690344218e-05 5.1773578889e-05 2.8894934076e-05 6.4377833041e-05 4.8134555982e-05
          3.1050192774e-05 6.421640137e-05 4.9625912652e-05 4.1697399865e-05 7.5597803516e-05 5.0317517889e-05
          2.8844367989e-05 6.1821760028e-05 5.0880549679e-05 5.4505548178e-05 4.5462740673e-05 5.0950278819e-05
          5.2093226259e-05 4.512673695e-05 4.7711131629e-05 4.2819701775e-05 7.4608215073e-05 4.8425514251e-05
          5.4962511058e-05 4.7315679694e-05 5.0108752475e-05 4.1111459723e-05 7.6480471762e-05 4.926103793e-05
          3.0674793379e-05 6.2139901274e-05 5.1893643104e-05 5.2070601669e-05 4.6121258492e-05 4.9654241593e-05
          5.1384522521e-05 4.6642657253e-05 4.9630692956e-05 3.135744555e-05 6.1608516262e-05 4.9740810937e-05
          2.9158061807e-05 6.2052706198e-05 4.8563924793e-05 4.0644412366e-05 7.3007453466e-05 4.9339105317e-05
          3.0159613743e-05 6.1374012148e-05 5.1217728469e-05 4.2014038627e-05 7.4420284363e-05 5.0311748055e-05
          5.2937561122e-05 4.8182646424e-05 4.911810538e-05 4.1039842472e-05 7.3414223152e-05 5.0339840527e-05
          3.0213357604e-05 6.505366764e-05 5.0385173381e-05 5.2291983593e-05 4.4530323066e-05 5.0714370445e-05
          4.0737751988e-05 7.5009251304e-05 5.1076702221e-05 5.4352727602e-05 4.7629968321e-05 4.9153688451e-05
          4.3425588956e-05 7.4077644967e-05 5.1156013797e-05 2.8753689548e-05 6.2413382693e-05 4.9675727496e-05
          2.889940879e-05 6.3537961978e-05 4.9665683036e-05 4.1207542381e-05 7.4736839451e-05 4.7602436098e-05
          5.330429849e-05 4.5848420996e-05 5.0386377552e-05 5.0891940191e-05 4.7234574595e-05 5.0474114687e-05
          2.8347616535e-05 6.4856430981e-05 4.9453294196e-05 2.9851158615e-05 6.3136132667e-05 5.0401489716e-05
          4.1259223508e-05 7.6199088653e-05 5.1088354667e-05 4.1529103328e-05 7.6498014096e-05 4.8047502787e-05
          3.0513283491e-05 6.3122068241e-05 5.2512408729e-05 4.2602790927e-05 7.6273892773e-05 4.9838028644e-05
          2.9067028663e-05 6.2956321926e-05 5.0649268815e-05 4.3892112444e-05 7.4616145866e-05 5.0229227782e-05
          5.2934239648e-05 4.6916957217e-05 5.0685830502e-05 5.3993015172e-05 4.6318877139e-05 5.0355327403e-05
          5.31294354e-05 4.4791697292e-05 4.9049616791e-05 4.2539657443e-05 7.3072122177e-05 4.8230605898e-05
          5.4148757044e-05 4.5592219976e-05 4.9338286772e-05 5.3559899243e-05 4.6088698582e-05 4.795570203e-05
          5.2990060794e-05 4.7222110879e-05 4.7294481192e-05 3.0148217775e-05 6.2058388721e-05 4.9584214139e-05
          2.9573699067e-05 6.2635226641e-05 4.9207592383e-05 2.9255610571e-05 6.492670218e-05 5.0925722462e-05
          4.2179974116e-05 7.3591691034e-05 5.0478047342e-05 4.1312734538e-05 7.2232629464e-05 4.9517460866e-05
          5.2103827329e-05 4.546357377e-05 5.0483915402e-05 5.2396939282e-05 4.6994598961e-05 4.925509711e-05
          3.0185365176e-05 6.1875092797e-05 4.8397476348e-05 2.8800241125e-05 6.2697050453e-05 4.8150897783e-05
          4.1579096433e-05 7.2461363743e-05 5.1276987506e-05 3.0862272979e-05 6.1482263845e-05 5.0436781748e-05
          4.079433711e-05 7.4390489317e-05 5.1701656048e-05 5.3745847254e-05 4.7102425015e-05 4.9698235671e-05
          3.0244598747e-05 6.4025509346e-05 4.9488822697e-05 5.3126936109e-05 4.5721579227e-05 4.9554168072e-05
          5.3998737712e-05 4.7523059038e-05 5.0615184591e-05 3.1490737456e-05 6.2527615228e-05 4.9855294492e-05
          4.1785744543e-05 7.5160460256e-05 4.8293662985e-05 2.9025761251e-05 6.1187944084e-05 5.0084825489e-05
          3.0924060411e-05 6.2700019043e-05 5.0962931709e-05 4.2853047489e-05 7.5072624895e-05 5.1149334467e-05
          5.2728202718e-05 4.7513913159e-05 5.0046317483e-05 2.9890879887e-05 6.3788895204e-05 5.1193637773e-05
          5.2842897276e-05 4.4922900997e-05 5.182325549e-05 4.0557966713e-05 7.5234209362e-05 5.1979979617e-05
          2.8132781154e-05 6.2351762608e-05 5.081447307e-05 2.8189258956e-05 6.3775383751e-05 4.8820926168e-05
          5.2137194871e-05 4.7504730901e-05 5.0679002015e-05 4.2018749809e-05 7.3711154982e-05 5.1830884331e-05
          5.3771382227e-05 4.4283249736e-05 5.1050566981e-05 4.0658171201e-05 7.4266201409e-05 4.8629812227e-05
          4.1030685679e-05 7.474119775e-05 4.9705522542e-05 5.2834871894e-05 4.5971100917e-05 5.1400329539e-05
          5.1528219046e-05 4.6748158638e-05 5.1378476201e-05 3.1701980333e-05 6.3504019636e-05 5.0487935368e-05
          5.1140261348e-05 4.5876844524e-05 4.85348246e-05 4.3219541112e-05 7.3402792623e-05 5.0122085668e-05
          5.1562084991e-05 4.773805631e-05 4.9488910008e-05 4.2345280235e-05 7.5956471846e-05 4.8436864745e-05
          2.7761290767e-05 6.3869672886e-05 5.1079448895e-05 4.3670912419e-05 7.5257812568e-05 5.1187609643e-05
          3.0113857065e-05 6.4446132455e-05 4.8362751841e-05 4.2511011998e-05 7.5886586274e-05 5.089799015e-05
          5.4138010455e-05 4.5683776989e-05 5.2141520428e-05 5.4651958635e-05 4.6288103476e-05 4.9591832067e-05
          4.1318180592e-05 7.5557669334e-05 4.9363086873e-05 2.8842150641e-05 6.3865991251e-05 5.0763926993e-05
          4.1371276893e-05 7.3383911513e-05 4.8231573601e-05 3.0732800951e-05 6.3226274506e-05 4.9857808335e-05
          4.0022372559e-05 7.6033749792e-05 5.0944516261e-05 2.9618524422e-05 6.2347957282e-05 5.2306146245e-05
          4.3249674491e-05 7.5880678196e-05 4.8956640967e-05 4.3091298721e-05 7.4454277637e-05 4.9374804803e-05
          4.2035968363e-05 7.3988514487e-05 4.7601912229e-05 2.9907650969e-05 6.4893632953e-05 5.1960694691e-05
          5.2880979638e-05 4.5733009756e-05 4.7032150178e-05 2.9568715036e-05 6.2864994106e-05 5.145686373e-05
          2.9439303034e-05 6.1182450736e-05 4.8971418437e-05 4.266815813e-05 7.5129741163e-05 4.7631576308e-05
          4.3703967094e-05 7.4136260082e-05 4.8226964282e-05 5.1924624131e-05 4.5305849198e-05 4.9054309784e-05
          5.2113002312e-05 4.6503238991e-05 5.0583243137e-05 4.1403545765e-05 7.3677925684e-05 4.9540820328e-05
          2.947959365e-05 6.195496826e-05 5.0450387789e-05 5.3250343626e-05 4.5128090278e-05 5.0649639888e-05
          2.8020813261e-05 6.3825340476e-05 4.9947760999e-05 3.0004785003e-05 6.2426544901e-05 5.0887996622e-05
          5.3064475651e-05 4.7289824579e-05 5.1405695558e-05 5.3919735365e-05 4.6246033889e-05 5.1221108151e-05
          5.2031027735e-05 4.44242105e-05 4.9326088629e-05 5.4414511396e-05 4.4892745791e-05 5.0194073992e-05
          5.2813884395e-05 4.7312714742e-05 4.8390105803e-05 2.9719554732e-05 6.3600047724e-05 4.9183210649e-05
          2.8075624869e-05 6.3650026277e-05 4.7802823246e-05 4.0496299334e-05 7.3996714491e-05 5.0696904509e-05
          5.3052193834e-05 4.6629418648e-05 4.9758149544e-05 5.1862480177e-05 4.7255274694e-05 4.7783258196e-05
          2.9650072975e-05 6.331892655e-05 4.8312827857e-05 5.3287178162e-05 4.6231001761e-05 4.862348942e-05
          2.9969021853e-05 6.3896979555e-05 5.2606916142e-05 4.1978408262e-05 7.4492076237e-05 4.8582711315e-05
          3.1786410545e-05 6.2734005041e-05 4.8142686865e-05 4.2583385948e-05 7.2951173934e-05 5.1744787925e-05
          2.9039665606e-05 6.1093123804e-05 5.1619965234e-05 3.1042287446e-05 6.1329868913e-05 4.8721631174e-05
          4.1526505811e-05 7.3480900028e-05 5.1198781875e-05 5.2896277339e-05 4.4172287744e-05 4.9898881116e-05
          4.1310933739e-05 7.4916846643e-05 5.0314512919e-05 5.4208321671e-05 4.6853674576e-05 4.7721205192e-05
          4.2323488742e-05 7.3333496402e-05 4.960469596e-05 4.2040483095e-05 7.2782728239e-05 4.9228085118e-05
          5.2534171118e-05 4.6309203753e-05 4.8623682233e-05 3.0752322346e-05 6.2270053604e-05 4.7714271204e-05
          4.2067353206e-05 7.2505819844e-05 5.0229496992e-05 2.9626167816e-05 6.4046507759e-05 5.0302063755e-05
          4.1502717067e-05 7.4702853453e-05 4.9079822929e-05 4.2070259951e-05 7.4381176091e-05 5.1397077186e-05
          5.129658166e-05 4.8245343351e-05 5.074542787e-05 7.4220246461e-05 3.0330407753e-05 4.9424292229e-05
          0.0001061361836 5.1426646678e-05 4.8692283599e-05 0.00013782527822 6.0831665905e-05 5.0844701036e-05
          0.00010238820687 7.508971612e-05 5.06539036e-05 7.684846787e-05 2.9386354072e-05 4.8977159167e-05
          0.0001100744048 5.1244831411e-05 5.1121493016e-05 0.0001364882628 6.1540544266e-05 5.124814561e-05
          9.9346318166e-05 7.6678450569e-05 5.2178209444e-05 0.00010620216199 5.3311370721e-05 5.0029186241e-05
          7.4581199442e-05 2.907387352e-05 4.861033085e-05 0.00013959789067 6.2570914451e-05 4.8576242989e-05
          0.00010163192201 7.7127471741e-05 4.9100995966e-05 0.00010166171705 7.5085117714e-05 5.1575956604e-05
          7.5466450653e-05 2.9167782486e-05 4.7902882216e-05 0.00013913722069 6.1775506765e-05 5.170364966e-05
          0.00010686266614 5.1238130254e-05 4.923549568e-05 0.00013856483565 6.1779392126e-05 5.0203983847e-05
          0.00010599668167 5.255690121e-05 4.8469042667e-05 7.6972530223e-05 3.0102673918e-05 5.0928938435e-05
          0.00010786873463 5.1229668316e-05 5.1386698033e-05 7.6717908087e-05 2.7682748623e-05 5.1644357882e-05
          0.00010200461111 7.4894167483e-05 4.7947509302e-05 7.6238073234e-05 3.0605555366e-05 5.1302136853e-05
          0.000100599078 7.5874610047e-05 4.9444435717e-05 0.00013807228243 6.3004867116e-05 4.847656237e-05
          0.0001018945477 7.7028751548e-05 5.08293233e-05 0.00010067979019 7.7452306869e-05 4.9566620874e-05
          0.00013979755749 6.0456564825e-05 4.8595946282e-05 0.00010898493929 5.3252184443e-05 5.0094575272e-05
          0.00013803858019 6.159034092e-05 5.2510218666e-05 0.00010903186194 5.1966788305e-05 4.7959027142e-05
          0.00010716430552 5.0153532356e-05 4.8159658036e-05 7.6718810305e-05 2.9787584936e-05 4.9984646466e-05
          0.00010679221305 5.0117803767e-05 5.1951221394e-05 0.00013848085655 6.1884471506e-05 4.7342557082e-05
          7.4707852036e-05 2.835235864e-05 5.1688512031e-05 0.00013976985065 6.1525308411e-05 4.8911002523e-05
          0.00010067801486 7.5066527643e-05 4.8587986385e-05 7.4787298217e-05 2.7301926821e-05 5.0984759582e-05
          9.9887736724e-05 7.4937343015e-05 5.2039562433e-05 7.6844124123e-05 2.8851325624e-05 5.210406016e-05
          0.00010869919788 5.1359154895e-05 5.1958613767e-05 7.6734308095e-05 2.7188165404e-05 4.921423897e-05
          0.0001000575794 7.4001924077e-05 5.0233309594e-05 0.00013726958423 6.3093568315e-05 4.9230380682e-05
          7.5014468166e-05 2.9953389458e-05 5.24905372e-05 0.00010862264025 5.2155606681e-05 4.9802216381e-05
          0.00013910718553 6.2898092438e-05 5.1728784456e-05 9.8984572105e-05 7.6300704677e-05 5.0616381486e-05
          0.00010099717474 7.5811505667e-05 4.7562156396e-05 0.00010831992404 5.1439936215e-05 4.7913010349e-05
          0.00010792483954 5.2747003792e-05 5.0468050176e-05 7.525334513e-05 3.0582352338e-05 4.9507831136e-05
          0.00010037500761 7.4594347097e-05 4.9411723012e-05 9.8791897472e-05 7.6228650869e-05 4.8678622989e-05
          0.00013754356769 6.0770675191e-05 4.8172350944e-05 0.00013979172218 6.1020513385e-05 5.0283706514e-05
          0.00014006983838 6.2634229835e-05 4.9370402849e-05 0.00014045723947 6.157685857e-05 5.095904271e-05
          0.00010169127927 7.5767107774e-05 4.9860071158e-05 0.00010907146498 5.0564114645e-05 4.9894504627e-05
          7.5803385698e-05 3.0212766433e-05 4.7347180953e-05 0.0001070359649 5.0725910114e-05 5.0691425713e-05
          0.00010724995809 4.9687376304e-05 4.9966994993e-05 7.6587813965e-05 2.8427284633e-05 4.8914880608e-05
          7.4822477472e-05 2.8197553547e-05 4.9575966841e-05 0.00013867259258 6.284200208e-05 4.9983536883e-05
          0.00010718286649 5.3234372899e-05 4.9269761803e-05 0.00010865348304 5.3274601669e-05 5.1711303968e-05