<?xml version="1.0"?>
<VTKFile type="UnstructuredGrid" version="0.1" byte_order="LittleEndian" header_type="UInt32" compressor="vtkZLibDataCompressor">
  <UnstructuredGrid>
    <Piece NumberOfPoints="56" NumberOfCells="56">
      <PointData>
        <DataArray type="Int32" Name="id" format="ascii" RangeMin="1" RangeMax="56">
          8 6 5 11 12 13
          21 22 23 32 33 34
          44 45 46 47 48 49
          9 4 3 7 14 15
          16 17 24 25 26 30
          31 35 36 37 41 50
          51 52 53 54 10 1
          18 19 27 28 38 39
          42 55 56 2 20 29
          40 43
        </DataArray>
        <DataArray type="Int32" Name="type" format="ascii" RangeMin="1" RangeMax="1">
          1 1 1 1 1 1
          1 1 1 1 1 1
          1 1 1 1 1 1
          1 1 1 1 1 1
          1 1 1 1 1 1
          1 1 1 1 1 1
          1 1 1 1 1 1
          1 1 1 1 1 1
          1 1 1 1 1 1
          1 1
        </DataArray>
        <DataArray type="Float64" Name="diameter" format="ascii" RangeMin="1.0348931243e-06" RangeMax="1.3309773052e-06">
          1.17124759e-06 1.1638871995e-06 1.2395550567e-06 1.0805128415e-06 1.1806789986e-06 1.145662176e-06
          1.1555664673e-06 1.1791924611e-06 1.1273803017e-06 1.2919169136e-06 1.247005949e-06 1.2899735449e-06
          1.0348931243e-06 1.1289155717e-06 1.1241063233e-06 1.1025012998e-06 1.0799101705e-06 1.050767115e-06
          1.3062600996e-06 1.1517314604e-06 1.2158275735e-06 1.3088413435e-06 1.1829729072e-06 1.2529813919e-06
          1.3309773052e-06 1.2843509917e-06 1.1604664375e-06 1.1030056943e-06 1.1919595054e-06 1.3167087116e-06
          1.1151188431e-06 1.16148678e-06 1.2702918721e-06 1.2294063076e-06 1.1372231205e-06 1.0547612529e-06
          1.1025818234e-06 1.1017310708e-06 1.0959398517e-06 1.1088920708e-06 1.2197514235e-06 1.3175511276e-06
          1.1018983039e-06 1.2621738277e-06 1.1191660276e-06 1.0795908593e-06 1.2489799105e-06 1.2126124315e-06
          1.2344695797e-06 1.1085217496e-06 1.1795277543e-06 1.1583112594e-06 1.1731170332e-06 1.3184870921e-06
          1.3066188669e-06 1.2012933108e-06
        </DataArray>
      </PointData>
      <CellData>
      </CellData>
      <Points>
        <DataArray type="Float32" Name="Points" NumberOfComponents="3" format="ascii" RangeMin="8.5050196516e-05" RangeMax="0.00025479970311">
          5.225640416e-05 4.7001798521e-05 5.0612321502e-05 2.8981285141e-05 6.370106712e-05 5.0158825616e-05
          4.1976840294e-05 7.3870331107e-05 5.0943304814e-05 5.2812025388e-05 4.577585787e-05 4.871548299e-05
          3.0134935514e-05 6.3538347604e-05 4.966204142e-05 4.2229650717e-05 7.5606396422e-05 5.0171529438e-05
          2.9378577892e-05 6.299202505e-05 5.0596019719e-05 5.3430099797e-05 4.5455009968e-05 5.0599108363e-05
          4.1855993913e-05 7.4148134445e-05 4.8823643738e-05 5.2921790484e-05 4.6963610657e-05 4.9553942517e-05
          4.1589675675e-05 7.4701893027e-05 5.0118465879e-05 2.9963453926e-05 6.2246741436e-05 4.960917795e-05
          2.9421253203e-05 6.2912113208e-05 4.9445923651e-05 5.3268722695e-05 4.5949065679e-05 4.9691596359e-05
          4.2276147724e-05 7.5469994044e-05 4.8999459977e-05 2.9450304282e-05 6.3038118242e-05 5.1681152399e-05
          5.2798044635e-05 4.6376575483e-05 5.0461298088e-05 4.1995248466e-05 7.4030598626e-05 4.9843642046e-05
          7.5287534855e-05 2.9756922231e-05 5.0556147471e-05 0.00010777787975 5.1047027227e-05 4.9808728363e-05
          0.0001382688497 6.1263599491e-05 4.9796690291e-05 0.00010094014578 7.544298569e-05 4.98538393e-05
          7.6395837823e-05 2.9032353268e-05 4.9303271226e-05 0.00010848316742 5.1505110605e-05 5.0322309107e-05
          0.00013822455367 6.233528984e-05 5.0173737691e-05 0.00010084618407 7.6123593317e-05 5.0636950618e-05
          0.00010728459165 5.1862964028e-05 5.0748221838e-05 7.560949598e-05 2.770363426e-05 4.9342230341e-05
          0.0001388653036 6.2265768065e-05 4.846304364e-05 0.0001006931343 7.5953430496e-05 4.8889487516e-05
          0.00010034427396 7.5026022387e-05 5.0988986914e-05 7.5501891843e-05 2.8855665732e-05 4.9760248658e-05
          0.00013873913849 6.1459584686e-05 5.0952694437e-05 0.00010835992725 5.1358194469e-05 4.8969286581e-05
          0.00013917832985 6.2068706029e-05 4.9567373935e-05 0.00010718711565 5.209545634e-05 4.9688194849e-05
          7.6451506175e-05 2.9043330869e-05 5.0486232794e-05 0.00010807100625 5.1544902817e-05 5.1492075727e-05
          7.6089760114e-05 2.7799962481e-05 5.033737034e-05 0.00010104474495 7.4601259257e-05 5.0114114856e-05
          0.00022065929079 6.1195183662e-05 4.9596103054e-05 0.00021794634813 7.8209355706e-05 5.0926861149e-05
          0.00022128409182 6.0008947912e-05 4.9625115935e-05 0.00021900847787 7.896990428e-05 4.9825925089e-05
          0.0002177626011 7.9294892203e-05 5.0467217079e-05 0.00022131339938 6.0588459746e-05 5.0482623919e-05
          0.00022070121486 6.1251761508e-05 5.0765476772e-05 0.00021844133153 7.7856959251e-05 4.9529560783e-05
          0.00021815895161 7.9123667092e-05 4.9321002734e-05 0.0002211308456 6.0467184085e-05 4.8701440392e-05
          0.00022109321435 5.943533688e-05 5.0509410357e-05 0.00024763101828 2.6771431294e-05 5.0507504056e-05
          0.00024768098956 2.6170655474e-05 4.9729973398e-05 0.00024863056024 2.5955650926e-05 4.9315691285e-05
          0.00024780788226 2.7551235689e-05 4.9670641602e-05 0.00024785049027 2.6061668905e-05 5.1034625358e-05
        </DataArray>
      </Points>
      <Cells>
        <DataArray type="Int64" Name="connectivity" format="ascii" RangeMin="0" RangeMax="55">
          0 1 2 3 4 5
          6 7 8 9 10 11
          12 13 14 15 16 17
          18 19 20 21 22 23
          24 25 26 27 28 29
          30 31 32 33 34 35
          36 37 38 39 40 41
          42 43 44 45 46 47
          48 49 50 51 52 53
          54 55
        </DataArray>
        <DataArray type="Int64" Name="offsets" format="ascii" RangeMin="1" RangeMax="56">
          1 2 3 4 5 6
          7 8 9 10 11 12
          13 14 15 16 17 18
          19 20 21 22 23 24
          25 26 27 28 29 30
          31 32 33 34 35 36
          37 38 39 40 41 42
          43 44 45 46 47 48
          49 50 51 52 53 54
          55 56
        </DataArray>
        <DataArray type="UInt8" Name="types" format="ascii" RangeMin="1" RangeMax="1">
          1 1 1 1 1 1
          1 1 1 1 1 1
          1 1 1 1 1 1
          1 1 1 1 1 1
          1 1 1 1 1 1
          1 1 1 1 1 1
          1 1 1 1 1 1
          1 1 1 1 1 1
          1 1 1 1 1 1
          1 1
        </DataArray>
      </Cells>
    </Piece>
  </UnstructuredGrid>
</VTKFile>
