<?xml version="1.0"?>
<VTKFile type="UnstructuredGrid" version="0.1" byte_order="LittleEndian" header_type="UInt32" compressor="vtkZLibDataCompressor">
  <UnstructuredGrid>
    <Piece NumberOfPoints="6134" NumberOfCells="6134">
      <PointData>
        <DataArray type="Int32" Name="id" format="ascii" RangeMin="1" RangeMax="6134">
          8 6 5 11 12 13
          21 22 23 32 33 34
          44 45 46 47 48 49
          57 58 67 68 78 79
          80 81 82 83 94 95
          96 97 98 99 113 114
          115 116 117 118 138 139
          140 141 142 143 144 145
          160 161 162 163 164 165
          166 167 168 189 190 191
          192 193 194 195 196 229
          230 231 232 233 234 235
          236 237 238 239 240 241
          242 243 274 275 276 277
          278 279 280 281 282 283
          284 285 286 287 313 314
          315 316 317 318 319 320
          321 322 323 324 371 372
          373 374 375 376 377 378
          379 380 381 382 383 384
          385 386 447 448 449 450
          451 452 453 454 455 456
          457 458 459 460 461 462
          463 464 465 466 467 510
          511 512 513 514 515 516
          517 518 519 520 521 522
          523 524 525 526 527 528
          529 530 531 580 581 582
          583 584 585 586 587 588
          589 590 591 592 593 594
          595 596 597 598 599 600
          601 602 603 604 605 606
          607 608 609 610 679 680
          681 682 683 684 685 686
          687 688 689 690 691 692
          693 694 695 696 697 698
          699 700 701 702 703 704
          705 791 792 793 794 795
          796 797 798 799 800 801
          802 803 804 805 806 807
          808 809 810 895 896 897
          898 899 900 901 902 903
          904 905 906 907 908 909
          910 911 912 913 914 915
          916 1001 1002 1003 1004 1005
          1006 1007 1008 1009 1010 1011
          1012 1013 1014 1015 1016 1017
          1018 1019 1020 1021 1022 1023
          1024 1025 1026 1027 1028 1029
          1030 1031 1032 1033 1034 1035
          1036 1037 1038 1039 1040 1041
          1042 1043 1044 1045 1046 1047
          1048 1049 1143 1144 1145 1146
          1147 1148 1149 1150 1151 1152
          1153 1154 1155 1156 1157 1158
          1159 1160 1161 1162 1163 1164
          1165 1166 1167 1168 1169 1170
          1171 1172 1173 1174 1175 1176
          1177 1178 1179 1180 1181 1182
          1183 1289 1290 1291 1292 1293
          1294 1295 1296 1297 1298 1299
          1300 1301 1302 1303 1304 1305
          1306 1307 1308 1309 1310 1311
          1312 1313 1314 1315 1316 1317
          1318 1319 1320 1321 1322 1323
          1324 1325 1326 1327 1328 1329
          1330 1331 1332 1333 1334 1335
          1457 1458 1459 1460 1461 1462
          1463 1464 1465 1466 1467 1468
          1469 1470 1471 1472 1473 1474
          1475 1476 1477 1478 1479 1480
          1481 1482 1483 1484 1485 1486
          1487 1488 1489 1490 1611 1612
          1613 1614 1615 1616 1617 1618
          1619 1620 1621 1622 1623 1624
          1625 1626 1627 1628 1629 1630
          1631 1632 1633 1634 1635 1636
          1637 1638 1639 1640 1641 1642
          1643 1644 1645 1646 1647 1648
          1649 1650 1651 1652 1653 1654
          1655 1656 1657 1658 1659 1782
          1783 1784 1785 1786 1787 1788
          1789 1790 1791 1792 1793 1794
          1795 1796 1797 1798 1799 1800
          1801 1802 1803 1804 1805 1806
          1807 1808 1809 1810 1811 1812
          1813 1814 1815 1816 1817 1818
          1819 1820 1821 1822 1823 1824
          1825 1826 1827 1828 1829 1830
          1831 1954 1955 1956 1957 1958
          1959 1960 1961 1962 1963 1964
          1965 1966 1967 1968 1969 1970
          1971 1972 1973 1974 1975 1976
          1977 1978 1979 1980 1981 1982
          1983 1984 1985 1986 1987 1988
          1989 1990 1991 1992 1993 1994
          1995 1996 1997 1998 1999 2000
          2001 2002 2003 2004 2005 2164
          2165 2166 2167 2168 2169 2170
          2171 2172 2173 2174 2175 2176
          2177 2178 2179 2180 2181 2182
          2183 2184 2185 2186 2187 2188
          2189 2190 2191 2192 2193 2194
          2195 2196 2197 2198 2199 2200
          2201 2202 2203 2204 2205 2206
          2207 2208 2209 2210 2211 2212
          2354 2355 2356 2357 2358 2359
          2360 2361 2362 2363 2364 2365
          2366 2367 2368 2369 2370 2371
          2372 2373 2374 2375 2376 2377
          2378 2379 2380 2381 2382 2383
          2384 2385 2386 2387 2388 2389
          2390 2391 2392 2393 2394 2395
          2396 2397 2398 2399 2400 2401
          2402 2403 2404 2405 2406 2407
          2408 2568 2569 2570 2571 2572
          2573 2574 2575 2576 2577 2578
          2579 2580 2581 2582 2583 2584
          2585 2586 2587 2588 2589 2590
          2591 2592 2593 2594 2595 2596
          2597 2598 2599 2600 2601 2602
          2603 2604 2605 2606 2607 2608
          2609 2610 2611 2612 2613 2614
          2615 2616 2617 2618 2619 2620
          2621 2622 2623 2624 2625 2626
          2627 2628 2795 2796 2797 2798
          2799 2800 2801 2802 2803 2804
          2805 2806 2807 2808 2809 2810
          2811 2812 2813 2814 2815 2816
          2817 2818 2819 2820 2821 2822
          2823 2824 2825 2826 2827 2828
          2829 2830 2831 2832 2833 2834
          2835 2836 2837 2838 2839 2840
          2841 2842 2843 2844 2845 2846
          2847 2848 2849 2850 2851 2852
          2853 2854 2855 2856 2857 2858
          3001 3002 3003 3004 3005 3006
          3007 3008 3009 3010 3011 3012
          3013 3014 3015 3016 3017 3018
          3019 3020 3021 3022 3023 3024
          3025 3026 3027 3028 3029 3030
          3031 3032 3033 3034 3035 3036
          3037 3038 3039 3040 3041 3042
          3043 3044 3045 3046 3047 3048
          3049 3050 3051 3052 3053 3054
          3055 3056 3057 3058 3059 3060
          3061 3062 3063 3236 3237 3238
          3239 3240 3241 3242 3243 3244
          3245 3246 3247 3248 3249 3250
          3251 3252 3253 3254 3255 3256
          3257 3258 3259 3260 3261 3262
          3263 3264 3265 3266 3267 3268
          3269 3270 3271 3272 3273 3274
          3275 3276 3277 3278 3279 3280
          3281 3282 3283 3284 3285 3286
          3287 3288 3289 3290 3291 3292
          3293 3294 3295 3296 3451 3452
          3453 3454 3455 3456 3457 3458
          3459 3460 3461 3462 3463 3464
          3465 3466 3467 3468 3469 3470
          3471 3472 3473 3474 3475 3476
          3477 3478 3479 3480 3481 3482
          3483 3484 3485 3486 3487 3488
          3489 3490 3491 3492 3493 3494
          3495 3496 3497 3498 3499 3500
          3501 3502 3503 3504 3505 3506
          3507 3508 3509 3510 3511 3512
          3513 3514 3515 3516 3517 3518
          3519 3717 3718 3719 3720 3721
          3722 3723 3724 3725 3726 3727
          3728 3729 3730 3731 3732 3733
          3734 3735 3736 3737 3738 3739
          3740 3741 3742 3743 3744 3745
          3746 3747 3748 3749 3750 3751
          3752 3753 3754 3755 3756 3757
          3758 3759 3760 3761 3762 3763
          3764 3765 3766 3767 3768 3769
          3770 3771 3772 3773 3774 3775
          3776 3777 3778 3779 3780 3781
          3782 3783 3784 3785 3786 3987
          3988 3989 3990 3991 3992 3993
          3994 3995 3996 3997 3998 3999
          4000 4001 4002 4003 4004 4005
          4006 4007 4008 4009 4010 4011
          4012 4013 4014 4015 4016 4017
          4018 4019 4020 4021 4022 4023
          4024 4025 4026 4027 4028 4029
          4030 4031 4032 4033 4034 4035
          4036 4037 4038 4039 4040 4041
          4042 4043 4044 4045 4046 4047
          4048 4049 4050 4051 4052 4053
          4054 4055 4056 4057 4058 4059
          4060 4061 4062 4063 4064 4065
          4066 4067 4068 4069 4256 4257
          4258 4259 4260 4261 4262 4263
          4264 4265 4266 4267 4268 4269
          4270 4271 4272 4273 4274 4275
          4276 4277 4278 4279 4280 4281
          4282 4283 4284 4285 4286 4287
          4288 4289 4290 4291 4292 4293
          4294 4295 4296 4297 4298 4299
          4300 4301 4302 4303 4304 4305
          4306 4307 4308 4309 4310 4311
          4312 4313 4314 4315 4316 4317
          4318 4319 4320 548 5956 4506
          4507 4508 4509 4510 4511 4512
          4513 4514 4515 4516 4517 4518
          4519 4520 4521 4522 4523 4524
          4525 4526 4527 4528 4529 4530
          4531 4532 4533 4534 4535 4536
          4537 4538 4539 4540 4541 4542
          4543 4544 4545 4546 4547 4548
          4549 4550 4551 4552 4553 4554
          4555 4556 4557 4558 4559 4560
          4561 4562 4563 4564 4565 4566
          4567 4568 4569 4570 4571 4572
          4573 4574 4575 4576 4577 4578
          4579 4580 4581 4582 4583 4584
          4585 4586 4789 4790 4791 4792
          4793 4794 4795 4796 4797 4798
          4799 4800 4801 4802 4803 4804
          4805 4806 4807 4808 4809 4810
          4811 4812 4813 4814 4815 4816
          4817 4818 4819 4820 4821 4822
          4823 4824 4825 4826 4827 4828
          4829 4830 4831 4832 4833 4834
          4835 4836 4837 4838 4839 4840
          4841 4842 4843 4844 4845 4846
          4847 4848 4849 4850 4851 4852
          4853 4854 4855 4856 4857 4858
          4859 4860 4861 4862 4863 4864
          4865 4866 4867 5038 5039 5040
          5041 5042 5043 5044 5045 5046
          5047 5048 5049 5050 5051 5052
          5053 5054 5055 5056 5057 5058
          5059 5060 5061 5062 5063 5064
          5065 5066 5067 5068 5069 5070
          5071 5072 5073 5074 5075 5076
          5077 5078 5079 5080 5081 5082
          5083 5084 5085 5086 5087 5088
          5089 5090 5091 5092 5093 5094
          5095 5096 5097 5098 5099 5100
          5101 5102 5103 5104 5303 5304
          5305 5306 5307 5308 5309 5310
          5311 5312 5313 5314 5315 5316
          5317 5318 5319 5320 5321 5322
          5323 5324 5325 5326 5327 5328
          5329 5330 5331 5332 5333 5334
          5335 5336 5337 5338 5339 5340
          5341 5342 5343 5344 5345 5346
          5347 5348 5349 5350 5351 5352
          5353 5354 5355 5356 5357 5358
          5359 5360 5361 5362 5363 5364
          5365 5366 5367 5368 5369 5370
          5371 5372 5373 5374 5375 5376
          5377 5378 5379 5380 5381 5575
          5576 5577 5578 5579 5580 5581
          5582 5583 5584 5585 5586 5587
          5588 5589 5590 5591 5592 5593
          5594 5595 5596 5597 5598 5599
          5600 5601 5602 5603 5604 5605
          5606 5607 5608 5609 5610 5611
          5612 5613 5614 5615 5616 5617
          5618 5619 5620 5621 5622 5623
          5624 5625 5626 5627 5628 5629
          5630 5631 5632 5633 5634 5635
          5636 5637 5638 5639 5640 5641
          5642 5643 5644 5645 5646 5647
          5648 5649 3126 5861 5862 5863
          5864 5865 5866 5867 5868 5869
          5870 5871 5872 5873 5874 5875
          5876 5877 5878 5879 5880 5881
          5882 5883 5884 5885 5886 5887
          5888 5889 5890 5891 5892 5893
          5894 5895 5896 5897 5898 5899
          5900 5901 5902 5903 5904 5905
          5906 5907 5908 5909 5910 5911
          5912 5913 5914 5915 5916 5917
          5918 5919 5920 5921 5922 5923
          5924 5925 5926 5927 5928 5929
          5930 5931 5932 5933 5934 5935
          5936 5937 5938 5939 5940 5941
          5942 5943 5944 5945 5946 5947
          5948 5949 5950 5951 5952 5953
          5954 5955 9 4 3 7
          14 15 16 17 24 25
          26 30 31 35 36 37
          41 50 51 52 53 54
          59 60 61 62 63 69
          70 71 72 84 85 86
          87 88 89 100 101 102
          103 104 105 106 107 119
          120 121 122 123 124 125
          126 127 128 129 130 146
          147 148 149 150 151 169
          170 171 172 173 174 175
          176 177 178 179 197 198
          199 200 201 202 203 204
          205 206 207 208 209 210
          211 212 213 214 215 216
          244 245 246 247 248 249
          250 251 252 253 254 255
          256 257 258 259 260 261
          288 289 290 291 292 293
          294 295 296 297 298 299
          300 301 325 326 327 328
          329 330 331 332 333 334
          335 336 337 338 339 340
          341 342 343 344 345 346
          347 387 388 389 390 391
          392 393 394 395 396 397
          398 399 400 401 402 403
          404 405 406 407 408 409
          410 411 412 413 414 415
          416 417 418 419 420 421
          422 423 468 469 470 471
          472 473 474 475 476 477
          478 479 480 481 482 483
          484 485 486 487 488 489
          490 491 492 493 494 495
          496 532 533 534 535 536
          537 538 539 540 541 542
          543 544 545 546 547 4420
          549 550 551 552 553 554
          555 556 557 558 559 611
          612 613 614 615 616 617
          618 619 620 621 622 623
          624 625 626 627 628 629
          630 631 632 633 634 635
          636 637 638 639 640 641
          642 643 644 645 706 707
          708 709 710 711 712 713
          714 715 716 717 718 719
          720 721 722 723 724 725
          726 727 728 729 730 731
          732 733 734 735 736 737
          738 739 740 741 742 743
          744 745 746 747 748 749
          750 751 752 753 754 811
          812 813 814 815 816 817
          818 819 820 821 822 823
          824 825 826 827 828 829
          830 831 832 833 834 835
          836 837 838 839 840 841
          842 843 844 845 846 847
          848 849 850 851 852 853
          854 855 856 857 858 917
          918 919 920 921 922 923
          924 925 926 927 928 929
          930 931 932 933 934 935
          936 937 938 939 940 941
          942 943 944 945 946 947
          948 949 950 951 952 953
          954 955 956 957 958 959
          960 961 962 963 964 965
          966 967 968 969 970 1050
          1051 1052 1053 1054 1055 1056
          1057 1058 1059 1060 1061 1062
          1063 1064 1065 1066 1067 1068
          1069 1070 1071 1072 1073 1074
          1075 1076 1077 1078 1079 1080
          1081 1082 1083 1084 1085 1086
          1087 1088 1089 1090 1091 1092
          1093 1094 1095 1096 1097 1098
          1099 1100 1101 1102 1103 1104
          1184 1185 1186 1187 1188 1189
          1190 1191 1192 1193 1194 1195
          1196 1197 1198 1199 1200 1201
          1202 1203 1204 1205 1206 1207
          1208 1209 1210 1211 1212 1213
          1214 1215 1216 1217 1218 1219
          1220 1221 1222 1223 1224 1225
          1226 1227 1228 1229 1230 1231
          1232 1233 1234 1235 1236 1237
          1336 1337 1338 1339 1340 1341
          1342 1343 1344 1345 1346 1347
          1348 1349 1350 1351 1352 1353
          1354 1355 1356 1357 1358 1359
          1360 1361 1362 1363 1364 1365
          1366 1367 1368 1369 1370 1371
          1372 1373 1374 1375 1376 1377
          1378 1379 1380 1381 1382 1383
          1384 1385 1386 1387 1388 1389
          1390 1391 1392 1393 1394 1395
          1396 1397 1398 1399 1400 1401
          1402 1403 1404 1405 1406 1407
          1408 1491 1492 1493 1494 1495
          1496 1497 1498 1499 1500 1501
          1502 1503 1504 1505 1506 1507
          1508 1509 1510 1511 1512 1513
          1514 1515 1516 1517 1518 1519
          1520 1521 1522 1523 1524 1525
          1526 1527 1528 1529 1530 1531
          1532 1533 1534 1535 1536 1537
          1538 1539 1540 1541 1542 1543
          1544 1545 1546 1547 1548 1549
          1550 1551 1552 1553 1554 1555
          1556 1557 1558 1559 1560 1561
          1562 1660 1661 1662 1663 1664
          1665 1666 1667 1668 1669 1670
          1671 1672 1673 1674 1675 1676
          1677 1678 1679 1680 1681 1682
          1683 1684 1685 1686 1687 1688
          1689 1690 1691 1692 1693 1694
          1695 1696 1697 1698 1699 1700
          1701 1702 1703 1704 1705 1706
          1707 1708 1709 1710 1711 1712
          1713 1714 1715 1716 1717 1718
          1719 1720 1721 1722 1723 1724
          1725 1726 1727 1728 1729 1832
          1833 1834 1835 1836 1837 1838
          1839 1840 1841 1842 1843 1844
          1845 1846 1847 1848 1849 1850
          1851 1852 1853 1854 1855 1856
          1857 1858 1859 1860 1861 1862
          1863 1864 1865 1866 1867 1868
          1869 1870 1871 1872 1873 1874
          1875 1876 1877 1878 1879 1880
          1881 1882 1883 1884 1885 1886
          1887 1888 1889 1890 1891 1892
          1893 1894 1895 1896 1897 1898
          1899 1900 2006 2007 2008 2009
          2010 2011 2012 2013 2014 2015
          2016 2017 2018 2019 2020 2021
          2022 2023 2024 2025 2026 2027
          2028 2029 2030 2031 2032 2033
          2034 2035 2036 2037 2038 2039
          2040 2041 2042 2043 2044 2045
          2046 2047 2048 2049 2050 2051
          2052 2053 2054 2055 2056 2057
          2058 2059 2060 2061 2062 2063
          2064 2065 2066 2067 2068 2069
          2070 2071 2072 2073 2074 2075
          2076 2077 2078 2079 2080 2081
          2082 2083 2213 2214 2215 2216
          2217 2218 2219 2220 2221 2222
          2223 2224 2225 2226 2227 2228
          2229 2230 2231 2232 2233 2234
          2235 2236 2237 2238 2239 2240
          2241 2242 2243 2244 2245 2246
          2247 2248 2249 2250 2251 2252
          2253 2254 2255 2256 2257 2258
          2259 2260 2261 2262 2263 2264
          2265 2266 2267 2268 2269 2270
          2271 2272 2273 2274 2275 2276
          2277 2278 2279 2280 2281 2282
          2283 2284 2285 2286 2287 2288
          2289 2409 2410 2411 2412 2413
          2414 2415 2416 2417 2418 2419
          2420 2421 2422 2423 2424 2425
          2426 2427 2428 2429 2430 2431
          2432 2433 2434 2435 2436 2437
          2438 2439 2440 2441 2442 2443
          2444 2445 2446 2447 2448 2449
          2450 2451 2452 2453 2454 2455
          2456 2457 2458 2459 2460 2461
          2462 2463 2464 2465 2466 2467
          2468 2469 2470 2471 2472 2473
          2474 2475 2476 2477 2478 2479
          2480 2481 2482 2483 2484 2485
          2486 2487 2488 2489 2490 2491
          2492 2493 2494 2495 2496 2497
          2498 2499 2500 2501 2502 2503
          2504 2505 2629 2630 2631 2632
          2633 2634 2635 2636 2637 2638
          2639 2640 2641 2642 2643 2644
          2645 2646 2647 2648 2649 2650
          2651 2652 2653 2654 2655 2656
          2657 2658 2659 2660 2661 2662
          2663 2664 2665 2666 2667 2668
          2669 2670 2671 2672 2673 2674
          2675 2676 2677 2678 2679 2680
          2681 2682 2683 2684 2685 2686
          2687 2688 2689 2690 2691 2692
          2693 2694 2695 2696 2697 2698
          2699 2700 2701 2702 2703 2704
          2705 2706 2707 2708 2709 2710
          2711 2712 2713 2714 2715 2716
          2717 2718 2719 2720 2721 2722
          2723 2724 2725 2726 2727 2728
          2729 2730 2731 2732 2859 2860
          2861 2862 2863 2864 2865 2866
          2867 2868 2869 2870 2871 2872
          2873 2874 2875 2876 2877 2878
          2879 2880 2881 2882 2883 2884
          2885 2886 2887 2888 2889 2890
          2891 2892 2893 2894 2895 2896
          2897 2898 2899 2900 2901 2902
          2903 2904 2905 2906 2907 2908
          2909 2910 2911 2912 2913 2914
          2915 2916 2917 2918 2919 2920
          2921 2922 2923 2924 2925 2926
          2927 2928 2929 2930 2931 2932
          2933 2934 2935 2936 2937 2938
          2939 2940 2941 3064 3065 3066
          3067 3068 3069 3070 3071 3072
          3073 3074 3075 3076 3077 3078
          3079 3080 3081 3082 3083 3084
          3085 3086 3087 3088 3089 3090
          3091 3092 3093 3094 3095 3096
          3097 3098 3099 3100 3101 3102
          3103 3104 3105 3106 3107 3108
          3109 3110 3111 3112 3113 3114
          3115 3116 3117 3118 3119 3120
          3121 3122 3123 3124 3125 5777
          3127 3128 3129 3130 3131 3132
          3133 3134 3135 3136 3137 3138
          3139 3140 3141 3142 3143 3144
          3145 3146 3147 3148 3149 3150
          3151 3152 3153 3154 3155 3156
          3157 3158 3159 3297 3298 3299
          3300 3301 3302 3303 3304 3305
          3306 3307 3308 3309 3310 3311
          3312 3313 3314 3315 3316 3317
          3318 3319 3320 3321 3322 3323
          3324 3325 3326 3327 3328 3329
          3330 3331 3332 3333 3334 3335
          3336 3337 3338 3339 3340 3341
          3342 3343 3344 3345 3346 3347
          3348 3349 3350 3351 3352 3353
          3354 3355 3356 3357 3358 3359
          3360 3361 3362 3363 3364 3365
          3366 3367 3368 3369 3370 3371
          3372 3373 3374 3375 3376 3377
          3378 3379 3380 3381 3520 3521
          3522 3523 3524 3525 3526 3527
          3528 3529 3530 3531 3532 3533
          3534 3535 3536 3537 3538 3539
          3540 3541 3542 3543 3544 3545
          3546 3547 3548 3549 3550 3551
          3552 3553 3554 3555 3556 3557
          3558 3559 3560 3561 3562 3563
          3564 4419 3566 3567 3568 3569
          3570 3571 3572 3573 3574 3575
          3576 3577 3578 3579 3580 3581
          3582 3583 3584 3585 3586 3587
          3588 3589 3590 3591 3592 3593
          3594 3595 3596 3597 3598 3599
          3600 3601 3602 3603 3604 3605
          3606 3607 3608 3609 3610 3611
          3612 3613 3614 3615 3616 3617
          3618 3619 3620 3621 3622 3623
          3787 3788 3789 3790 3791 3792
          3793 3794 3795 3796 3797 3798
          3799 3800 3801 3802 3803 3804
          3805 3806 3807 3808 3809 3810
          3811 3812 3813 3814 3815 3816
          3817 3818 3819 3820 3821 3822
          3823 3824 3825 3826 3827 3828
          3829 3830 3831 3832 3833 3834
          3835 3836 3837 3838 3839 3840
          3841 3842 3843 3844 3845 3846
          3847 3848 3849 3850 3851 3852
          3853 3854 3855 3856 3857 3858
          3859 3860 3861 3862 3863 3864
          3865 3866 3867 3868 3869 3870
          3871 3872 3873 3874 3875 3876
          3877 3878 3879 3880 3881 3882
          3883 3884 3885 3886 3887 3888
          3889 4070 4071 4072 4073 4074
          4075 4076 4077 4078 4079 4080
          4081 4082 4083 4084 4085 4086
          4087 4088 4089 4090 4091 4092
          4093 4094 4095 4096 4097 4098
          4099 4100 4101 4102 4103 4104
          4105 4106 4107 4108 4109 4110
          4111 4112 4113 4114 4115 4116
          4117 4118 4119 4120 4121 4122
          4123 4124 4125 4126 4127 4128
          4129 4130 4131 4132 4133 4134
          4135 4136 4137 4138 4139 4140
          4141 4142 4143 4144 4145 4146
          4147 4148 4149 4150 4151 4152
          4153 4154 4155 4156 4157 4158
          4159 4160 4161 4162 4163 4164
          4165 4166 4167 4168 4169 4170
          4171 4172 4173 4174 4175 4176
          4321 4322 4323 4324 4325 4326
          4327 4328 4329 4330 4331 4332
          4333 4334 4335 4336 4337 4338
          4339 4340 4341 4342 4343 4344
          4345 4346 4347 4348 4349 4350
          4351 4352 4353 4354 4355 4356
          4357 4358 4359 4360 4361 4362
          4363 4364 4365 4366 4367 4368
          4369 4370 4371 4372 4373 4374
          4375 4376 4377 4378 4379 4380
          4381 4382 4383 4384 4385 4386
          4387 4388 4389 4390 4391 4392
          4393 4394 4395 4396 4397 4398
          4399 4400 4401 4402 4403 4404
          4405 4406 4407 4408 4409 4410
          4411 4412 4413 4414 4415 4416
          4417 4418 4587 4588 4589 4590
          4591 4592 4593 4594 4595 4596
          4597 4598 4599 4600 4601 4602
          4603 4604 4605 4606 4607 4608
          4609 4610 4611 4612 4613 4614
          4615 4616 4617 4618 4619 4620
          4621 4622 4623 4624 4625 4626
          4627 4628 4629 4630 4631 4632
          4633 4634 4635 4636 4637 4638
          4639 4640 4641 4642 4643 4644
          4645 4646 4647 4648 4649 4650
          4651 4652 4653 4654 4655 4656
          4657 4658 4659 4660 4661 4662
          4663 4664 4665 4666 4667 4668
          4669 4670 4671 4672 4673 4674
          4675 4676 4677 4678 4679 4680
          4681 4682 4683 4684 4685 4686
          4687 4688 4689 4690 4691 4692
          4868 4869 4870 4871 4872 4873
          4874 4875 4876 4877 4878 4879
          4880 4881 4882 4883 4884 4885
          4886 4887 4888 4889 4890 4891
          4892 4893 4894 4895 4896 4897
          4898 4899 4900 4901 4902 4903
          4904 4905 4906 4907 4908 4909
          4910 4911 4912 4913 4914 4915
          4916 4917 4918 4919 4920 4921
          4922 4923 4924 4925 4926 4927
          4928 4929 4930 4931 4932 4933
          4934 4935 4936 4937 4938 4939
          4940 4941 4942 4943 4944 4945
          4946 4947 4948 4949 4950 4951
          4952 4953 4954 4955 4956 4957
          4958 4959 4960 4961 4962 4963
          4964 4965 4966 4967 5105 5106
          5107 5108 5109 5110 5111 5112
          5113 5114 5115 5116 5117 5118
          5119 5120 5121 5122 5123 5124
          5125 5126 5127 5128 5129 5130
          5131 5132 5133 5134 5135 5136
          5137 5138 5139 5140 5141 5142
          5143 5144 5145 5146 5147 5148
          5149 5150 5151 5152 5153 5154
          5155 5156 5157 5158 5159 5160
          5161 5162 5163 5164 5165 5166
          5167 5168 5169 5170 5171 5172
          5173 5174 5175 5176 5177 5178
          5179 5180 5181 5182 5183 5184
          5185 5186 5187 5188 5189 5190
          5191 5192 5193 5194 5195 5196
          5197 5198 5199 5200 5201 5202
          5203 5204 5205 5206 5207 5208
          5209 5210 5211 5212 5213 5214
          5215 5216 5217 5218 5219 5220
          5221 5222 5223 5224 5225 5226
          5227 5228 5229 5230 5382 5383
          5384 5385 5386 5387 5388 5389
          5390 5391 5392 5393 5394 5395
          5396 5397 5398 5399 5400 5401
          5402 5403 5404 5405 5406 5407
          5408 5409 5410 5411 5412 5413
          5414 5415 5416 5417 5418 5419
          5420 5421 5422 5423 5424 5425
          5426 5427 5428 5429 5430 5431
          5432 5433 5434 5435 5436 5437
          5438 5439 5440 5441 5442 5443
          5444 5445 5446 5447 5448 5449
          5450 5451 5452 5453 5454 5455
          5456 5457 5458 5459 5460 5461
          5462 5463 5464 5465 5466 5467
          5468 5469 5470 5471 5472 5473
          5474 5475 5476 5477 5478 5479
          5480 5481 5482 5483 5484 5485
          5486 5487 5488 5489 5490 5650
          5651 5652 5653 5654 5655 5656
          5657 5658 5659 5660 5661 5662
          5663 5664 5665 5666 5667 5668
          5669 5670 5671 5672 5673 5674
          5675 5676 5677 5678 5679 5680
          5681 5682 5683 5684 5685 5686
          5687 5688 5689 5690 5691 5692
          5693 5694 5695 5696 5697 5698
          5699 5700 5701 5702 5703 5704
          5705 5706 5707 5708 5709 5710
          5711 5712 5713 5714 5715 5716
          5717 5718 5719 5720 5721 5722
          5723 5724 5725 5726 5727 5728
          5729 5730 5731 5732 5733 5734
          5735 5736 5737 5738 5739 5740
          5741 5742 5743 5744 5745 5746
          5747 5748 5749 5750 5751 5752
          5753 5754 5755 5756 5757 5758
          5759 5760 5761 5762 5763 5764
          5765 5766 5767 5768 5769 5770
          5771 5772 5773 5774 5775 5776
          5957 5958 5959 5960 5961 5962
          5963 5964 5965 5966 5967 5968
          5969 5970 5971 5972 5973 5974
          5975 5976 5977 5978 5979 5980
          5981 5982 5983 5984 5985 5986
          5987 5988 5989 5990 5991 5992
          5993 5994 5995 5996 5997 5998
          5999 6000 6001 6002 6003 6004
          6005 6006 6007 6008 6009 6010
          6011 6012 6013 6014 6015 6016
          6017 6018 6019 6020 6021 6022
          6023 6024 6025 6026 6027 6028
          6029 6030 6031 6032 6033 6034
          6035 6036 6037 6038 6039 6040
          6041 3565 10 1 18 19
          27 28 38 39 42 55
          56 64 73 74 75 76
          77 2984 108 109 110 111
          112 131 132 133 152 153
          154 155 156 157 180 181
          182 183 184 185 217 218
          219 220 221 222 223 224
          262 263 264 265 266 267
          268 302 303 304 305 306
          307 308 348 349 350 351
          352 353 354 355 356 357
          358 359 360 361 362 363
          424 425 426 427 428 429
          430 431 432 433 3203 435
          436 437 497 498 499 500
          501 502 503 560 561 562
          563 564 565 566 567 568
          569 570 571 572 573 574
          646 647 648 649 650 651
          652 653 654 655 656 657
          658 659 660 661 2546 663
          664 665 666 755 6089 757
          758 759 760 761 762 763
          764 765 766 767 768 769
          770 771 772 773 774 859
          2331 861 862 863 864 865
          866 867 868 869 870 871
          872 873 874 875 876 877
          878 879 880 881 971 972
          2983 974 975 976 977 978
          979 980 981 5275 983 984
          985 986 987 988 989 990
          991 992 1105 1106 1107 1108
          1109 1110 1111 1112 1113 1114
          1115 1116 1117 1118 1119 1120
          1121 1122 1123 1124 1125 1126
          1127 1128 1129 1238 1239 1240
          1241 1242 1243 1244 1245 1246
          1247 1248 1249 1250 1251 3423
          1253 1254 1255 1256 1257 1258
          1259 1260 1261 1262 1263 1264
          1265 1266 1267 1268 1269 1270
          1409 1410 1411 1412 1413 1414
          1415 1416 1417 1418 1419 1420
          1421 1422 1423 1424 1425 1426
          1427 1428 1429 1430 1431 1432
          1433 1434 1435 1436 1437 1438
          1439 1563 1564 1565 1566 1567
          1568 1569 1570 1571 1572 1573
          1574 1575 1576 1577 1578 1579
          1580 3422 1582 1583 1584 1585
          1586 1587 1588 1589 1590 1591
          1592 1593 1594 1730 1731 1732
          1733 1734 1735 1736 1737 1738
          1739 3421 1741 1742 1743 1744
          1745 1746 1747 1748 1749 1750
          1751 1752 1753 6088 1755 1756
          1757 1758 1759 1760 1761 1762
          1901 1902 1903 1904 1905 1906
          1907 1908 1909 1910 1911 1912
          1913 1914 1915 1916 1917 1918
          1919 1920 1921 1922 1923 1924
          1925 1926 1927 1928 1929 1930