<?xml version="1.0"?>
<VTKFile type="UnstructuredGrid" version="0.1" byte_order="LittleEndian" header_type="UInt32" compressor="vtkZLibDataCompressor">
  <UnstructuredGrid>
    <Piece NumberOfPoints="66" NumberOfCells="66">
      <PointData>
        <DataArray type="Int32" Name="id" format="ascii" RangeMin="1" RangeMax="66">
          8 6 5 11 12 13
          21 22 23 32 33 34
          44 45 46 47 48 49
          57 58 9 4 3 7
          14 15 16 17 24 25
          26 30 31 35 36 37
          41 50 51 52 53 54
          59 60 61 62 63 10
          1 18 19 27 28 38
          39 42 55 56 64 2
          20 29 40 43 65 66
        </DataArray>
        <DataArray type="Int32" Name="type" format="ascii" RangeMin="1" RangeMax="1">
          1 1 1 1 1 1
          1 1 1 1 1 1
          1 1 1 1 1 1
          1 1 1 1 1 1
          1 1 1 1 1 1
          1 1 1 1 1 1
          1 1 1 1 1 1
          1 1 1 1 1 1
          1 1 1 1 1 1
          1 1 1 1 1 1
          1 1 1 1 1 1
        </DataArray>
        <DataArray type="Float64" Name="diameter" format="ascii" RangeMin="1.0425846777e-06" RangeMax="1.3500469334e-06">
          1.244704329e-06 1.2368700233e-06 1.3172861059e-06 1.148279e-06 1.2547147706e-06 1.2175053124e-06
          1.2280275304e-06 1.2531474759e-06 1.1980770032e-06 1.1172447707e-06 1.3252042349e-06 1.0915394476e-06
          1.0997872331e-06 1.1997173878e-06 1.1945977174e-06 1.1716348534e-06 1.1476385314e-06 1.116659493e-06
          1.0606970074e-06 1.0845470577e-06 1.0776319304e-06 1.2250869649e-06 1.292163103e-06 1.1341448169e-06
          1.2584109426e-06 1.3324330235e-06 1.0985414053e-06 1.1108424826e-06 1.2343782858e-06 1.1736720112e-06
          1.2667964822e-06 1.0993599074e-06 1.1854522237e-06 1.2354005207e-06 1.3500469334e-06 1.3073630416e-06
          1.2086234827e-06 1.1224034449e-06 1.1728933294e-06 1.1715919097e-06 1.1662268345e-06 1.178832713e-06
          1.1267866271e-06 1.0728535333e-06 1.145905753e-06 1.0568076981e-06 1.1223771982e-06 1.296594388e-06
          1.1725374653e-06 1.1713166548e-06 1.3413736329e-06 1.1893922748e-06 1.1476038663e-06 1.3276642368e-06
          1.288702322e-06 1.3119309784e-06 1.1783573701e-06 1.2550038818e-06 1.0425846777e-06 1.231471494e-06
          1.2472124171e-06 1.1000080261e-06 1.1241960994e-06 1.2771683399e-06 1.126367143e-06 1.0800526327e-06
        </DataArray>
      </PointData>
      <CellData>
      </CellData>
      <Points>
        <DataArray type="Float32" Name="Points" NumberOfComponents="3" format="ascii" RangeMin="8.4639533589e-05" RangeMax="0.00025499397589">
          5.2239829529e-05 4.7038294724e-05 5.0551861932e-05 2.8979826311e-05 6.3766696258e-05 5.0077946071e-05
          4.1983319534e-05 7.3885770689e-05 5.0949314755e-05 5.2784853324e-05 4.5792163291e-05 4.8683778004e-05
          3.0150156817e-05 6.3538922404e-05 4.9704845878e-05 4.2253577703e-05 7.5594347436e-05 5.020370736e-05
          2.940306149e-05 6.2914914452e-05 5.0597980589e-05 5.3427749663e-05 4.5470445912e-05 5.062425771e-05
          4.1848714318e-05 7.4130308349e-05 4.8814672482e-05 5.2531475376e-05 4.7126024583e-05 4.9184531235e-05
          4.1485851398e-05 7.4773277447e-05 5.0125665439e-05 2.9732014809e-05 6.220889918e-05 4.9090842367e-05
          2.9418804843e-05 6.2908082327e-05 4.9442580348e-05 5.3256488172e-05 4.5981611038e-05 4.9621176004e-05
          4.2274023144e-05 7.5458439824e-05 4.8981586588e-05 2.9472381357e-05 6.3033839979e-05 5.1694481954e-05
          5.2743547712e-05 4.6369332267e-05 5.0464830565e-05 4.2069168558e-05 7.3931092629e-05 4.9794620281e-05
          5.3369745729e-05 4.6822962759e-05 4.9968821259e-05 3.0227303796e-05 6.2308448832e-05 5.0099111832e-05
          7.4804578617e-05 2.9849412385e-05 5.0782931794e-05 0.00010774897237 5.0956296036e-05 4.9761601986e-05
          0.00013825428323 6.126891094e-05 4.9802354624e-05 0.00010142133397 7.5366042438e-05 4.9489270168e-05
          7.6385200373e-05 2.9070963137e-05 4.9285172281e-05 0.00010852200649 5.1557519328e-05 5.0361239119e-05
          0.0001380386384 6.2231323682e-05 5.0694074162e-05 0.00010019468755 7.6072508818e-05 5.0519240176e-05
          0.00010726827895 5.1857517974e-05 5.0739105063e-05 7.5594325608e-05 2.7709358619e-05 4.9312584451e-05
          0.00013885257067 6.2251769123e-05 4.8452780902e-05 0.00010120469233 7.5899457443e-05 4.8819634685e-05
          0.00010035209561 7.5042968092e-05 5.1012470067e-05 7.5463911344e-05 2.876216422e-05 4.9761089031e-05
          0.00013878042228 6.1455655668e-05 5.0925355026e-05 0.00010836203728 5.1398867072e-05 4.8977806728e-05
          0.00013923439838 6.1985025241e-05 4.9632464652e-05 0.00010721573199 5.2097646403e-05 4.9618098274e-05
          7.6428063039e-05 2.9010107028e-05 5.0542646932e-05 0.00010809818195 5.1524926675e-05 5.1503811846e-05
          7.6103533502e-05 2.780235809e-05 5.0365582865e-05 0.00010105407273 7.4596522609e-05 5.0106576964e-05
          7.580206875e-05 2.9677010389e-05 5.0277052651e-05 0.00010063363879 7.5489559094e-05 5.0230144552e-05
          0.00013832870172 6.2403203628e-05 4.963684114e-05 0.00010136974015 7.6175580034e-05 5.07485056e-05
          0.00010014128929 7.6078780694e-05 4.8961723223e-05 0.00022065272788 6.11962314e-05 4.9588772526e-05
          0.00021771225147 7.8572535131e-05 5.1317318139e-05 0.00022127148986 6.0041391407e-05 4.960872684e-05
          0.00021900447609 7.8967153968e-05 4.9938866141e-05 0.00021778707742 7.9303041275e-05 5.0404269132e-05
          0.00022135535255 6.0622842284e-05 5.0491726142e-05 0.00022068212274 6.122947525e-05 5.0839920732e-05
          0.00021842197748 7.7861448517e-05 4.9516816944e-05 0.00021814834327 7.9095982073e-05 4.9209618737e-05
          0.00022112335137 6.0494381614e-05 4.8651785619e-05 0.00022105696553 5.9451245761e-05 5.0560531236e-05
          0.0002181637683 7.7915181464e-05 5.0593294873e-05 0.00024762973771 2.6767904274e-05 5.0561342505e-05
          0.00024757365463 2.6096460715e-05 4.977019853e-05 0.00024860474514 2.5913825084e-05 4.8765126849e-05
          0.00024798893719 2.8086933526e-05 4.9671405577e-05 0.00024784100242 2.6065228667e-05 5.1047267334e-05
          0.00024871039204 2.6005838663e-05 4.9887523346e-05 0.00024768608273 2.7049685741e-05 4.9551250413e-05
        </DataArray>
      </Points>
      <Cells>
        <DataArray type="Int64" Name="connectivity" format="ascii" RangeMin="0" RangeMax="65">
          0 1 2 3 4 5
          6 7 8 9 10 11
          12 13 14 15 16 17
          18 19 20 21 22 23
          24 25 26 27 28 29
          30 31 32 33 34 35
          36 37 38 39 40 41
          42 43 44 45 46 47
          48 49 50 51 52 53
          54 55 56 57 58 59
          60 61 62 63 64 65
        </DataArray>
        <DataArray type="Int64" Name="offsets" format="ascii" RangeMin="1" RangeMax="66">
          1 2 3 4 5 6
          7 8 9 10 11 12
          13 14 15 16 17 18
          19 20 21 22 23 24
          25 26 27 28 29 30
          31 32 33 34 35 36
          37 38 39 40 41 42
          43 44 45 46 47 48
          49 50 51 52 53 54
          55 56 57 58 59 60
          61 62 63 64 65 66
        </DataArray>
        <DataArray type="UInt8" Name="types" format="ascii" RangeMin="1" RangeMax="1">
          1 1 1 1 1 1
          1 1 1 1 1 1
          1 1 1 1 1 1
          1 1 1 1 1 1
          1 1 1 1 1 1
          1 1 1 1 1 1
          1 1 1 1 1 1
          1 1 1 1 1 1
          1 1 1 1 1 1
          1 1 1 1 1 1
          1 1 1 1 1 1
        </DataArray>
      </Cells>
    </Piece>
  </UnstructuredGrid>
</VTKFile>
