<?xml version="1.0"?>
<VTKFile type="UnstructuredGrid" version="0.1" byte_order="LittleEndian" header_type="UInt32" compressor="vtkZLibDataCompressor">
  <UnstructuredGrid>
    <Piece NumberOfPoints="894" NumberOfCells="894">
      <PointData>
        <DataArray type="Int32" Name="id" format="ascii" RangeMin="1" RangeMax="894">
          8 6 5 11 12 13
          21 22 23 32 33 34
          44 45 46 47 48 49
          57 58 67 68 78 79
          80 81 82 83 94 95
          96 97 98 99 113 114
          115 116 117 118 138 139
          140 141 142 143 144 145
          160 161 162 163 164 165
          166 167 168 189 190 191
          192 193 194 195 196 229
          230 231 232 233 234 235
          236 237 238 239 240 241
          242 243 274 275 276 277
          278 279 280 281 282 283
          284 285 286 287 313 314
          315 316 317 318 319 320
          321 322 323 324 371 372
          373 374 375 376 377 378
          379 380 381 382 383 384
          385 386 447 448 449 450
          451 452 453 454 455 456
          457 458 459 460 461 462
          463 464 465 466 467 510
          511 512 513 514 515 516
          517 518 519 520 521 522
          523 524 525 526 527 528
          529 530 531 580 581 582
          583 584 585 586 587 588
          589 590 591 592 593 594
          595 596 597 598 599 600
          601 602 603 604 605 606
          607 608 609 610 679 680
          681 682 683 684 685 686
          687 688 689 690 691 692
          693 694 695 696 697 698
          699 700 701 702 703 704
          705 791 792 793 794 795
          796 797 798 799 800 801
          802 803 804 805 806 807
          808 809 810 9 4 3
          7 14 15 16 17 24
          25 26 30 31 35 36
          37 41 50 51 52 53
          54 59 60 61 62 63
          69 70 71 72 84 85
          86 87 88 89 100 101
          102 103 104 105 106 107
          119 120 121 122 123 124
          125 126 127 128 129 130
          146 147 148 149 150 151
          169 170 171 172 173 174
          175 176 177 178 179 197
          198 199 200 201 202 203
          204 205 206 207 208 209
          210 211 212 213 214 215
          216 244 245 246 247 248
          249 250 251 252 253 254
          255 256 257 258 259 260
          261 288 289 290 291 292
          293 294 295 296 297 298
          299 300 301 325 326 327
          328 329 330 331 332 333
          334 335 336 337 338 339
          340 341 342 343 344 345
          346 347 387 388 389 390
          391 392 393 394 395 396
          397 398 399 400 401 402
          403 404 405 406 407 408
          409 410 411 412 413 414
          415 416 417 418 419 420
          421 422 423 468 469 470
          471 472 473 474 475 476
          477 478 479 480 481 482
          483 484 485 486 487 488
          489 490 491 492 493 494
          495 496 532 533 534 535
          536 537 538 539 540 541
          542 543 544 545 546 547
          548 549 550 551 552 553
          554 555 556 557 558 559
          611 612 613 614 615 616
          617 618 619 620 621 622
          623 624 625 626 627 628
          629 630 631 632 633 634
          635 636 637 638 639 640
          641 642 643 644 645 706
          707 708 709 710 711 712
          713 714 715 716 717 718
          719 720 721 722 723 724
          725 726 727 728 729 730
          731 732 733 734 735 736
          737 738 739 740 741 742
          743 744 745 746 747 748
          749 750 751 752 753 754
          811 812 813 814 815 816
          817 818 819 820 821 822
          823 824 825 826 827 828
          829 830 831 832 833 834
          835 836 837 838 839 840
          841 842 843 844 845 846
          847 848 849 850 851 852
          853 854 855 856 857 858
          10 1 18 19 27 28
          38 39 42 55 56 64
          73 74 75 76 77 90
          108 109 110 111 112 131
          132 133 152 153 154 155
          156 157 180 181 182 183
          184 185 217 218 219 220
          221 222 223 224 262 263
          264 265 266 267 268 302
          303 304 305 306 307 308
          348 349 350 351 352 353
          354 355 356 357 358 359
          360 361 362 363 424 425
          426 427 428 429 430 431
          432 433 434 435 436 437
          497 498 499 500 501 502
          503 560 561 562 563 564
          565 566 567 568 569 570
          571 572 573 574 646 647
          648 649 650 651 652 653
          654 655 656 657 658 659
          660 661 662 663 664 665
          666 755 756 757 758 759
          760 761 762 763 764 765
          766 767 768 769 770 771
          772 773 774 859 860 861
          862 863 864 865 866 867
          868 869 870 871 872 873
          874 875 876 877 878 879
          880 881 2 20 29 40
          43 65 66 91 92 93
          134 135 136 137 158 159
          186 187 188 225 226 227
          228 269 270 271 272 273
          309 310 311 312 364 365
          366 367 368 369 370 438
          439 440 441 442 443 444
          445 446 504 505 506 507
          508 509 575 576 577 578
          579 667 668 669 670 671
          672 673 674 675 676 677
          678 775 776 777 778 779
          780 781 782 783 784 785
          786 787 788 789 790 882
          883 884 885 886 887 888
          889 890 891 892 893 894
        </DataArray>
        <DataArray type="Int32" Name="type" format="ascii" RangeMin="1" RangeMax="1">
          1 1 1 1 1 1
          1 1 1 1 1 1
          1 1 1 1 1 1
          1 1 1 1 1 1
          1 1 1 1 1 1
          1 1 1 1 1 1
          1 1 1 1 1 1
          1 1 1 1 1 1
          1 1 1 1 1 1
          1 1 1 1 1 1
          1 1 1 1 1 1
          1 1 1 1 1 1
          1 1 1 1 1 1
          1 1 1 1 1 1
          1 1 1 1 1 1
          1 1 1 1 1 1
          1 1 1 1 1 1
          1 1 1 1 1 1
          1 1 1 1 1 1
          1 1 1 1 1 1
          1 1 1 1 1 1
          1 1 1 1 1 1
          1 1 1 1 1 1
          1 1 1 1 1 1
          1 1 1 1 1 1
          1 1 1 1 1 1
          1 1 1 1 1 1
          1 1 1 1 1 1
          1 1 1 1 1 1
          1 1 1 1 1 1
          1 1 1 1 1 1
          1 1 1 1 1 1
          1 1 1 1 1 1
          1 1 1 1 1 1
          1 1 1 1 1 1
          1 1 1 1 1 1
          1 1 1 1 1 1
          1 1 1 1 1 1
          1 1 1 1 1 1
          1 1 1 1 1 1
          1 1 1 1 1 1
          1 1 1 1 1 1
          1 1 1 1 1 1
          1 1 1 1 1 1
          1 1 1 1 1 1
          1 1 1 1 1 1
          1 1 1 1 1 1
          1 1 1 1 1 1
          1 1 1 1 1 1
          1 1 1 1 1 1
          1 1 1 1 1 1
          1 1 1 1 1 1
          1 1 1 1 1 1
          1 1 1 1 1 1
          1 1 1 1 1 1
          1 1 1 1 1 1
          1 1 1 1 1 1
          1 1 1 1 1 1
          1 1 1 1 1 1
          1 1 1 1 1 1
          1 1 1 1 1 1
          1 1 1 1 1 1
          1 1 1 1 1 1
          1 1 1 1 1 1
          1 1 1 1 1 1
          1 1 1 1 1 1
          1 1 1 1 1 1
          1 1 1 1 1 1
          1 1 1 1 1 1
          1 1 1 1 1 1
          1 1 1 1 1 1
          1 1 1 1 1 1
          1 1 1 1 1 1
          1 1 1 1 1 1
          1 1 1 1 1 1
          1 1 1 1 1 1
          1 1 1 1 1 1
          1 1 1 1 1 1
          1 1 1 1 1 1
          1 1 1 1 1 1
          1 1 1 1 1 1
          1 1 1 1 1 1
          1 1 1 1 1 1
          1 1 1 1 1 1
          1 1 1 1 1 1
          1 1 1 1 1 1
          1 1 1 1 1 1
          1 1 1 1 1 1
          1 1 1 1 1 1
          1 1 1 1 1 1
          1 1 1 1 1 1
          1 1 1 1 1 1
          1 1 1 1 1 1
          1 1 1 1 1 1
          1 1 1 1 1 1
          1 1 1 1 1 1
          1 1 1 1 1 1
          1 1 1 1 1 1
          1 1 1 1 1 1
          1 1 1 1 1 1
          1 1 1 1 1 1
          1 1 1 1 1 1
          1 1 1 1 1 1
          1 1 1 1 1 1
          1 1 1 1 1 1
          1 1 1 1 1 1
          1 1 1 1 1 1
          1 1 1 1 1 1
          1 1 1 1 1 1
          1 1 1 1 1 1
          1 1 1 1 1 1
          1 1 1 1 1 1
          1 1 1 1 1 1
          1 1 1 1 1 1
          1 1 1 1 1 1
          1 1 1 1 1 1
          1 1 1 1 1 1
          1 1 1 1 1 1
          1 1 1 1 1 1
          1 1 1 1 1 1
          1 1 1 1 1 1
          1 1 1 1 1 1
          1 1 1 1 1 1
          1 1 1 1 1 1
          1 1 1 1 1 1
          1 1 1 1 1 1
          1 1 1 1 1 1
          1 1 1 1 1 1
          1 1 1 1 1 1
          1 1 1 1 1 1
          1 1 1 1 1 1
          1 1 1 1 1 1
          1 1 1 1 1 1
          1 1 1 1 1 1
          1 1 1 1 1 1
          1 1 1 1 1 1
          1 1 1 1 1 1
          1 1 1 1 1 1
          1 1 1 1 1 1
          1 1 1 1 1 1
          1 1 1 1 1 1
          1 1 1 1 1 1
          1 1 1 1 1 1
          1 1 1 1 1 1
          1 1 1 1 1 1
          1 1 1 1 1 1
          1 1 1 1 1 1
          1 1 1 1 1 1
          1 1 1 1 1 1
        </DataArray>
        <DataArray type="Float64" Name="diameter" format="ascii" RangeMin="1.014227792e-06" RangeMax="1.3599658837e-06">
          1.26772018e-06 1.2152519485e-06 1.1643924435e-06 1.339194194e-06 1.1627585314e-06 1.3417844018e-06
          1.3264452077e-06 1.1568241649e-06 1.1901732237e-06 1.3022024153e-06 1.1040609851e-06 1.2913351013e-06
          1.2774894736e-06 1.2686736748e-06 1.2414749725e-06 1.1515653946e-06 1.3059956843e-06 1.3109349593e-06
          1.1285470046e-06 1.1811256127e-06 1.2779465732e-06 1.1752742509e-06 1.0885674846e-06 1.228437742e-06
          1.0511738942e-06 1.0826696907e-06 1.2986176968e-06 1.3056938459e-06 1.1852963398e-06 1.2674594836e-06
          1.213005933e-06 1.1833535267e-06 1.2704833568e-06 1.3028556265e-06 1.0998088166e-06 1.3057868169e-06
          1.172609671e-06 1.3115912709e-06 1.2783547643e-06 1.1155996982e-06 1.1856603923e-06 1.189890915e-06
          1.1909590572e-06 1.2935485466e-06 1.1974958594e-06 1.1766824047e-06 1.3380100349e-06 1.1375969461e-06
          1.0177393843e-06 1.2074952969e-06 1.259051483e-06 1.2567418788e-06 1.1207542237e-06 1.1355723732e-06
          1.1366827119e-06 1.2311535135e-06 1.0249280593e-06 1.2574063694e-06 1.2170236672e-06 1.0996105773e-06
          1.3301616287e-06 1.3058858739e-06 1.2965923263e-06 1.2655878224e-06 1.2542118176e-06 1.2706930844e-06
          1.1996816197e-06 1.1382850418e-06 1.3057426772e-06 1.0900851869e-06 1.257703237e-06 1.277675408e-06
          1.2324881859e-06 1.2768642473e-06 1.2927920705e-06 1.2216248045e-06 1.330712213e-06 1.2238952162e-06
          1.2353570028e-06 1.3143237659e-06 1.2857984538e-06 1.1162036369e-06 1.2532565492e-06 1.2487102711e-06
          1.1847240915e-06 1.0981913816e-06 1.079370375e-06 1.2449921609e-06 1.2223310809e-06 1.1974310633e-06
          1.23313945e-06 1.1710735382e-06 1.1053827525e-06 1.0845476963e-06 1.1620842506e-06 1.1266232733e-06
          1.2994613165e-06 1.3573938914e-06 1.143227835e-06 1.027629575e-06 1.1726786326e-06 1.0910428149e-06
          1.2830111218e-06 1.1185050796e-06 1.1991972467e-06 1.2799501335e-06 1.047947496e-06 1.3322997414e-06
          1.192245139e-06 1.328084888e-06 1.2611566065e-06 1.263374918e-06 1.2869761335e-06 1.1787282963e-06
          1.1048783173e-06 1.340599327e-06 1.1502778769e-06 1.1361862742e-06 1.3061456278e-06 1.3191549121e-06
          1.181368272e-06 1.1531088689e-06 1.1305293229e-06 1.0404188398e-06 1.3135871002e-06 1.1848505527e-06
          1.2791387986e-06 1.1662221045e-06 1.3597420179e-06 1.2407769103e-06 1.289285268e-06 1.3516773078e-06
          1.3551437506e-06 1.3145750492e-06 1.2189202252e-06 1.3084613083e-06 1.1054076535e-06 1.3331279275e-06
          1.2278196777e-06 1.2546792359e-06 1.1799248038e-06 1.2943084419e-06 1.2200314405e-06 1.3440541295e-06
          1.2221609807e-06 1.1539969283e-06 1.23654047e-06 1.1693378629e-06 1.3352236707e-06 1.1484689739e-06
          1.1741225372e-06 1.1677093093e-06 1.2443831528e-06 1.1960406646e-06 1.2730644446e-06 1.1474255603e-06
          1.2146594139e-06 1.1728091672e-06 1.2484307108e-06 1.2400778526e-06 1.1731771911e-06 1.248810212e-06
          1.2600574429e-06 1.2224447635e-06 1.3458673154e-06 1.2018865638e-06 1.3013744159e-06 1.2846622393e-06
          1.1799648186e-06 1.2488438295e-06 1.2106928884e-06 1.1305944322e-06 1.2284973507e-06 1.2478797086e-06
          1.2329039103e-06 1.2386903388e-06 1.2133893998e-06 1.2305075134e-06 1.1476509112e-06 1.2080716326e-06
          1.2076375189e-06 1.1832818454e-06 1.1472816386e-06 1.1152561068e-06 1.1261839764e-06 1.1921941826e-06
          1.1767380794e-06 1.2748961037e-06 1.15222283e-06 1.2201110801e-06 1.202977633e-06 1.1890316751e-06
          1.1225333239e-06 1.1278009634e-06 1.2321803874e-06 1.2270582532e-06 1.1122848137e-06 1.110788681e-06
          1.1547836269e-06 1.2038968817e-06 1.1229368174e-06 1.2115266683e-06 1.1821782311e-06 1.0742871783e-06
          1.1651169783e-06 1.1506602365e-06 1.1091255656e-06 1.1753852959e-06 1.1094440529e-06 1.2354313636e-06
          1.0737455618e-06 1.166697951e-06 1.2287910954e-06 1.2080519531e-06 1.212522196e-06 1.1556823358e-06
          1.2104128852e-06 1.1595504114e-06 1.2273202088e-06 1.1615387088e-06 1.0990420638e-06 1.1007672775e-06
          1.1378731599e-06 1.0489115841e-06 1.0340855484e-06 1.2023237325e-06 1.060389628e-06 1.1454107945e-06
          1.1198059359e-06 1.0764633506e-06 1.1505404572e-06 1.1296294665e-06 1.1216250127e-06 1.0771381126e-06
          1.066212245e-06 1.1695852952e-06 1.1541322248e-06 1.0341029376e-06 1.0814026238e-06 1.1296406176e-06
          1.1195197032e-06 1.1037469052e-06 1.014227792e-06 1.314987371e-06 1.1910823327e-06 1.2943359903e-06
          1.2687325454e-06 1.1683603396e-06 1.1431324843e-06 1.2358865451e-06 1.0817533352e-06 1.2937712119e-06
          1.0330017623e-06 1.206590181e-06 1.2196198223e-06 1.0962827296e-06 1.1809255242e-06 1.1045582844e-06
          1.1680536275e-06 1.0839058844e-06 1.0418875903e-06 1.2096259199e-06 1.1188909105e-06 1.3443478747e-06
          1.1898855658e-06 1.077863627e-06 1.1871870917e-06 1.344926907e-06 1.3093747409e-06 1.100068947e-06
          1.2757254754e-06 1.2549295655e-06 1.3308657724e-06 1.2412239909e-06 1.1343059016e-06 1.3053582332e-06
          1.3519605263e-06 1.3166360859e-06 1.0661229547e-06 1.3477087101e-06 1.2754460989e-06 1.1522711532e-06
          1.1777249356e-06 1.2520224969e-06 1.182248217e-06 1.2173127546e-06 1.33558126e-06 1.1080482215e-06
          1.1988861799e-06 1.1101845508e-06 1.1915142991e-06 1.1309670742e-06 1.0664781535e-06 1.0835357656e-06
          1.2952145826e-06 1.0990718342e-06 1.0458901649e-06 1.1769807336e-06 1.1879469066e-06 1.3518041076e-06
          1.1920226704e-06 1.2594820162e-06 1.1125997903e-06 1.299194119e-06 1.3334397408e-06 1.2609016277e-06
          1.0800801523e-06 1.1872651978e-06 1.3401723841e-06 1.1305256592e-06 1.1763099178e-06 1.2866704426e-06
          1.0935455037e-06 1.2910393594e-06 1.1013717424e-06 1.1343411949e-06 1.084410087e-06 1.1664360205e-06
          1.3068969064e-06 1.3498968767e-06 1.1496711545e-06 1.0450512356e-06 1.0835183728e-06 1.2291925566e-06
          1.1940566703e-06 1.3293593181e-06 1.230217123e-06 1.3437265828e-06 1.2935187281e-06 1.2705176409e-06
          1.1169951134e-06 1.158306168e-06 1.3025668188e-06 1.1683046267e-06 1.3494793661e-06 1.0552598869e-06
          1.3051404516e-06 1.2742568847e-06 1.2209718339e-06 1.0487797194e-06 1.1772039765e-06 1.1858936055e-06
          1.0607048258e-06 1.2829655332e-06 1.2392315939e-06 1.1925492759e-06 1.2144990726e-06 1.2411258475e-06
          1.3031480847e-06 1.1072447518e-06 1.170441602e-06 1.1144419481e-06 1.3380494029e-06 1.2911015954e-06
          1.2057493189e-06 1.1200433447e-06 1.1682153038e-06 1.1655302234e-06 1.3067948766e-06 1.2694284893e-06
          1.3193003063e-06 1.1495070734e-06 1.2204316703e-06 1.3122420917e-06 1.2982455108e-06 1.2773895935e-06
          1.2877725929e-06 1.3091598412e-06 1.2025037698e-06 1.1197082882e-06 1.1297508965e-06 1.2635268409e-06
          1.1922773348e-06 1.1781644649e-06 1.0646938193e-06 1.2110989674e-06 1.1100238833e-06 1.3093213483e-06
          1.2009566275e-06 1.1436673931e-06 1.285229499e-06 1.2279027083e-06 1.0565484998e-06 1.1645640688e-06
          1.3000530798e-06 1.3113905878e-06 1.2148682982e-06 1.2181404781e-06 1.2214433006e-06 1.0690421346e-06
          1.1202976625e-06 1.1284066661e-06 1.128816007e-06 1.1300089299e-06 1.0731546807e-06 1.2769257957e-06
          1.2141461581e-06 1.331771519e-06 1.1080250695e-06 1.3097483703e-06 1.0901976205e-06 1.2739658856e-06
          1.0461627721e-06 1.3527314282e-06 1.2879968418e-06 1.133075097e-06 1.1136290752e-06 1.1003541621e-06
          1.1843783914e-06 1.3355358169e-06 1.170581414e-06 1.3035039921e-06 1.2619961681e-06 1.0693570322e-06
          1.0844735952e-06 1.0488356136e-06 1.1684365499e-06 1.2007329746e-06 1.1428554942e-06 1.1304623997e-06
          1.1584049019e-06 1.1532017014e-06 1.3496483603e-06 1.1441492822e-06 1.1135971445e-06 1.1163502479e-06
          1.3405652201e-06 1.0553017581e-06 1.3241162573e-06 1.309236366e-06 1.3359640879e-06 1.3435317021e-06
          1.2988685032e-06 1.3599658837e-06 1.1647335555e-06 1.3408122692e-06 1.2210503263e-06 1.3374047505e-06
          1.3177482373e-06 1.0196661623e-06 1.2437729579e-06 1.2811388022e-06 1.1798449043e-06 1.1204409505e-06
          1.2457973311e-06 1.1757670313e-06 1.3304887646e-06 1.266449044e-06 1.2850270565e-06 1.3366321697e-06
          1.320362994e-06 1.3162355887e-06 1.2982554541e-06 1.3367646774e-06 1.2936825416e-06 1.1105209485e-06
          1.1027729481e-06 1.3281290528e-06 1.0808647359e-06 1.2179741402e-06 1.3530573941e-06 1.2734679889e-06
          1.3555879449e-06 1.3405951099e-06 1.2405459203e-06 1.2268174157e-06 1.2578394623e-06 1.212399736e-06
          1.1593307251e-06 1.1284630772e-06 1.247156617e-06 1.3346593025e-06 1.2381830606e-06 1.2353163803e-06
          1.3138877443e-06 1.3485023393e-06 1.3280850885e-06 1.2124329309e-06 1.2644851948e-06 1.3082988291e-06
          1.3440935966e-06 1.1389558566e-06 1.2490618104e-06 1.2940686682e-06 1.2939276107e-06 1.2901267314e-06
          1.1435850525e-06 1.2299077714e-06 1.1669245419e-06 1.1253943964e-06 1.1878272618e-06 1.237271693e-06
          1.211223287e-06 1.3008665605e-06 1.1978583202e-06 1.1535271281e-06 1.2704103506e-06 1.1531517933e-06
          1.1897856446e-06 1.2142279839e-06 1.1845978682e-06 1.2579444509e-06 1.286064349e-06 1.2011970953e-06
          1.2298023274e-06 1.2507140615e-06 1.1743378916e-06 1.2268288555e-06 1.2322326038e-06 1.2044227503e-06
          1.1488277378e-06 1.1469996652e-06 1.2725525533e-06 1.2633530533e-06 1.191947782e-06 1.1497172457e-06
          1.1656596938e-06 1.2757548993e-06 1.1713563151e-06 1.2686135868e-06 1.1652409975e-06 1.1764266741e-06
          1.1972862418e-06 1.1681187932e-06 1.2159839363e-06 1.0680074273e-06 1.0932547596e-06 1.1836074588e-06
          1.1490608987e-06 1.2001437043e-06 1.1675235422e-06 1.1746180259e-06 1.1047162059e-06 1.2234063755e-06
          1.2143148829e-06 1.097041277e-06 1.1327245158e-06 1.1741295642e-06 1.1908431403e-06 1.1995728345e-06
          1.2057644349e-06 1.0838463585e-06 1.1706491639e-06 1.2079655896e-06 1.1194358101e-06 1.1469834342e-06
          1.2112063543e-06 1.1579288568e-06 1.1429406867e-06 1.1722546746e-06 1.2156868142e-06 1.1713205549e-06
          1.1177572396e-06 1.1787511978e-06 1.1936819759e-06 1.1305677204e-06 1.0866744686e-06 1.1196566615e-06
          1.1477726675e-06 1.1147076386e-06 1.2107740238e-06 1.2138631621e-06 1.1483959304e-06 1.1120632865e-06
          1.2005187362e-06 1.1413802058e-06 1.1631139697e-06 1.1032961196e-06 1.1573741042e-06 1.076747133e-06
          1.1616726832e-06 1.17143027e-06 1.0320358308e-06 1.1212490819e-06 1.1804330153e-06 1.0958607124e-06
          1.1047130638e-06 1.1087559769e-06 1.0810582613e-06 1.0949918311e-06 1.1734551974e-06 1.076197808e-06
          1.1699397097e-06 1.1188286087e-06 1.0392845662e-06 1.0992391066e-06 1.1549025966e-06 1.0930546921e-06
          1.1412308292e-06 1.1385099797e-06 1.0506711768e-06 1.11163812e-06 1.1561906759e-06 1.1389980612e-06
          1.1659399234e-06 1.1375189654e-06 1.1385534655e-06 1.0353761897e-06 1.1370295027e-06 1.1382483153e-06
          1.1103825231e-06 1.0744168868e-06 1.145555052e-06 1.1222837842e-06 1.137569394e-06 1.0365153189e-06
          1.0858984848e-06 1.0459168197e-06 1.1334310778e-06 1.1152538951e-06 1.0378143984e-06 1.1537987305e-06
          1.0439621279e-06 1.1042220603e-06 1.1694973915e-06 1.0758647598e-06 1.1375453684e-06 1.0355509613e-06
          1.2098026499e-06 1.0561678637e-06 1.3310005939e-06 1.2543480956e-06 1.3293471543e-06 1.3408666806e-06
          1.2501746786e-06 1.2199687223e-06 1.208355489e-06 1.0717193604e-06 1.240434241e-06 1.2889123214e-06
          1.2338975724e-06 1.2054901305e-06 1.1551342076e-06 1.3275561479e-06 1.2279825499e-06 1.2115128759e-06
          1.1452055265e-06 1.1499235375e-06 1.1279055362e-06 1.1587433444e-06 1.1292040224e-06 1.1992784984e-06
          1.293753704e-06 1.3208702426e-06 1.1739587729e-06 1.2998475076e-06 1.1349861712e-06 1.1710193271e-06
          1.2907565115e-06 1.354143828e-06 1.1564041465e-06 1.182064773e-06 1.2107003e-06 1.1764126619e-06
          1.119776679e-06 1.0868064138e-06 1.0866724165e-06 1.1841958377e-06 1.1221353809e-06 1.3411051792e-06
          1.0462982283e-06 1.208302197e-06 1.1320643404e-06 1.2389916026e-06 1.3085429659e-06 1.2203985892e-06
          1.2542776943e-06 1.1761213213e-06 1.1431036464e-06 1.2070281964e-06 1.3184679864e-06 1.3534248794e-06
          1.2082289634e-06 1.1386097357e-06 1.2459002664e-06 1.2192083086e-06 1.3231780531e-06 1.1641875759e-06
          1.0374832579e-06 1.2104587281e-06 1.1567158227e-06 1.1929296762e-06 1.2327936047e-06 1.2242183496e-06
          1.0714349432e-06 1.2090340423e-06 1.1550355702e-06 1.2397020138e-06 1.0535021238e-06 1.2407764388e-06
          1.2167106703e-06 1.1542427024e-06 1.3221277251e-06 1.2624783706e-06 1.2884366859e-06 1.0601172155e-06
          1.1116735512e-06 1.0997838073e-06 1.3526770877e-06 1.2053992338e-06 1.3574849331e-06 1.3450776013e-06
          1.1377842299e-06 1.0347721282e-06 1.0683874111e-06 1.08829275e-06 1.1506283165e-06 1.1171189201e-06
          1.2603945812e-06 1.2831676927e-06 1.1896775747e-06 1.0726222818e-06 1.2392813066e-06 1.3296067103e-06
          1.3448010639e-06 1.240376639e-06 1.2088338231e-06 1.2042260651e-06 1.3003650143e-06 1.3223452989e-06
          1.3439573854e-06 1.2510016694e-06 1.3050261654e-06 1.1695471041e-06 1.2454115919e-06 1.3147327297e-06
          1.2182749923e-06 1.332547639e-06 1.1559172363e-06 1.2402521585e-06 1.238552722e-06 1.2734347852e-06
          1.202927443e-06 1.264364263e-06 1.2570889119e-06 1.2106232674e-06 1.2119299446e-06 1.2925601668e-06
          1.2618000244e-06 1.2507503424e-06 1.2557474969e-06 1.2291233915e-06 1.3513822511e-06 1.2573809187e-06
          1.2850948589e-06 1.1955598815e-06 1.1662336231e-06 1.2346859628e-06 1.2400091584e-06 1.1876573639e-06
          1.2428577328e-06 1.1073007317e-06 1.152191387e-06 1.2128427384e-06 1.2002545319e-06 1.0609911821e-06
          1.1252244874e-06 1.2101358119e-06 1.1957904008e-06 1.1204334787e-06 1.1343426636e-06 1.1137662257e-06
          1.0917489231e-06 1.0491992073e-06 1.0784434981e-06 1.1909495126e-06 1.1150648026e-06 1.1000677279e-06
          1.1289804179e-06 1.162583747e-06 1.0945068328e-06 1.1228178738e-06 1.1528675659e-06 1.1156007223e-06
          1.0512118582e-06 1.10278905e-06 1.0335833662e-06 1.0421272282e-06 1.087564344e-06 1.1557709312e-06
          1.1018129779e-06 1.147583194e-06 1.1149108999e-06 1.1595353235e-06 1.183764278e-06 1.0428562647e-06
          1.1331710493e-06 1.1329274279e-06 1.0452733046e-06 1.1394901057e-06 1.1634689741e-06 1.1266217581e-06
          1.1365518792e-06 1.1440857953e-06 1.2776954513e-06 1.31503033e-06 1.2390353813e-06 1.1926079456e-06
          1.1418988997e-06 1.0681323249e-06 1.2604630614e-06 1.2617093123e-06 1.1584747763e-06 1.235039768e-06
          1.2644746182e-06 1.2509461557e-06 1.3482952044e-06 1.2157267487e-06 1.0974212882e-06 1.2466641219e-06
          1.1429524417e-06 1.2094572455e-06 1.1411885904e-06 1.1072860493e-06 1.1417139966e-06 1.0992984828e-06
          1.157716815e-06 1.1984804548e-06 1.0760830119e-06 1.179067005e-06 1.1177759377e-06 1.3146070634e-06
          1.1388579976e-06 1.3281995997e-06 1.2878183312e-06 1.2408374711e-06 1.163526507e-06 1.125445768e-06
          1.2257242664e-06 1.1825754338e-06 1.1579350794e-06 1.2259735939e-06 1.316855189e-06 1.1810289681e-06
          1.1276272653e-06 1.1932350985e-06 1.1977951261e-06 1.108472065e-06 1.0445917619e-06 1.1674522279e-06
          1.1954622542e-06 1.0872528482e-06 1.2750055915e-06 1.1062178731e-06 1.1403370614e-06 1.3409407508e-06
          1.3144724501e-06 1.3358555659e-06 1.151314239e-06 1.2638081992e-06 1.2099348065e-06 1.0716716341e-06
          1.2361297496e-06 1.1769357954e-06 1.1868787852e-06 1.2178894027e-06 1.1604579451e-06 1.2082378102e-06
          1.243453458e-06 1.1136848407e-06 1.225555018e-06 1.2418352863e-06 1.1730012598e-06 1.2369957661e-06
          1.1776504723e-06 1.144298588e-06 1.1392717243e-06 1.2258062673e-06 1.1247993669e-06 1.1341751322e-06
          1.1859578013e-06 1.2235028385e-06 1.2068637469e-06 1.1529967908e-06 1.1740793701e-06 1.096872038e-06
          1.1709011251e-06 1.0686027144e-06 1.1564866095e-06 1.164199936e-06 1.2047223736e-06 1.1288453638e-06
          1.070779685e-06 1.0586686923e-06 1.0943989551e-06 1.0571594936e-06 1.1626973436e-06 1.073199176e-06
          1.1380677006e-06 1.1035433649e-06 1.0751425687e-06 1.063794938e-06 1.0984253927e-06 1.142295105e-06
        </DataArray>
      </PointData>
      <CellData>
      </CellData>
      <Points>
        <DataArray type="Float32" Name="Points" NumberOfComponents="3" format="ascii" RangeMin="8.3215819864e-05" RangeMax="0.00025675467838">
          5.2311115724e-05 4.8768830311e-05 5.1242401241e-05 2.8338097763e-05 6.4063729951e-05 5.1814611652e-05
          4.248663754e-05 7.4552437582e-05 5.2365594456e-05 5.2315521316e-05 4.6223362006e-05 4.7644247388e-05
          3.0139566661e-05 6.5288004407e-05 4.8688307288e-05 4.3000778533e-05 7.5161704444e-05 5.0168226153e-05
          2.832093196e-05 6.2955485191e-05 5.2276478527e-05 5.3548206779e-05 4.4574124331e-05 4.9341415433e-05
          3.9864098653e-05 7.4572235462e-05 4.9238085921e-05 5.12066581e-05 4.7355995775e-05 4.8652840633e-05
          4.0442664613e-05 7.5789619586e-05 5.0165650464e-05 3.0562776374e-05 6.0557304096e-05 4.8551486543e-05
          3.0804927519e-05 6.3192594098e-05 4.8266843805e-05 5.3249903431e-05 4.5214539568e-05 4.8354824685e-05
          4.348420407e-05 7.5881704106e-05 4.7897818149e-05 2.9293520129e-05 6.3789193518e-05 5.1814724429e-05
          5.2166615205e-05 4.6657834901e-05 5.2516050346e-05 4.2515930545e-05 7.3730312579e-05 4.8912061175e-05
          5.3961422964e-05 4.7340414312e-05 5.1620769227e-05 3.109519821e-05 6.238539936e-05 4.9040056183e-05
          4.2730258428e-05 7.2718212323e-05 5.0838429161e-05 4.1916111513e-05 7.5552394264e-05 4.9436086556e-05
          5.2063267503e-05 4.7561108659e-05 5.1650615205e-05 2.892554221e-05 6.437079719e-05 4.7402583732e-05
          3.1219609809e-05 6.430157373e-05 4.9341633712e-05 4.1299139411e-05 7.5638199633e-05 5.0295639085e-05
          2.8751517675e-05 6.1726517742e-05 5.0990700402e-05 5.4706430092e-05 4.5358086936e-05 5.1020073442e-05
          5.2210551075e-05 4.4568598241e-05 4.7504832764e-05 4.3092404667e-05 7.4452931585e-05 4.8333069572e-05
          5.5361157138e-05 4.7709261707e-05 5.0382281188e-05 4.1210842028e-05 7.7143835369e-05 4.8904243158e-05
          3.0728642741e-05 6.1660146457e-05 5.2516094001e-05 5.2091538237e-05 4.618379171e-05 4.9767008022e-05
          5.0842922064e-05 4.6042205213e-05 4.9675447372e-05 3.1533887523e-05 6.1390266637e-05 4.9695841881e-05
          2.9368806281e-05 6.2055303715e-05 4.8429363233e-05 4.0490580432e-05 7.2895854828e-05 4.9206846597e-05
          3.0112105378e-05 6.1282422394e-05 5.1269311371e-05 4.2192987166e-05 7.4359420978e-05 4.9801579735e-05
          5.2885829064e-05 4.8836925998e-05 4.9095964641e-05 4.0893319238e-05 7.3129340308e-05 5.0251328503e-05
          3.0411827538e-05 6.4865096647e-05 5.0992373872e-05 5.2298088121e-05 4.4302239985e-05 5.093368236e-05
          4.0672774048e-05 7.4956871686e-05 5.1063227147e-05 5.4538584664e-05 4.7436096793e-05 4.8669829994e-05
          4.3423180614e-05 7.4065967056e-05 5.1151775551e-05 2.8873600968e-05 6.197316543e-05 4.9406356993e-05
          2.8997104891e-05 6.3878840592e-05 4.9584872613e-05 4.0714865463e-05 7.499086496e-05 4.6980712796e-05
          5.3412171837e-05 4.592019468e-05 5.0522703532e-05 5.0391634431e-05 4.6828081395e-05 5.0541086239e-05
          2.8559275961e-05 6.4511150413e-05 4.9246020353e-05 2.9503662518e-05 6.3192594098e-05 4.9785870942e-05
          4.1461371438e-05 7.6356845966e-05 5.1724229706e-05 4.1162620619e-05 7.6344738773e-05 4.8501206038e-05
          3.0632159906e-05 6.3355917518e-05 5.2997656894e-05 4.2815827328e-05 7.6634554716e-05 5.0440063205e-05
          2.9018134228e-05 6.2733721279e-05 5.0447746617e-05 4.394746793e-05 7.4951924034e-05 4.9834674428e-05
          5.305531522e-05 4.694319432e-05 5.08230587e-05 5.4308438848e-05 4.6381301217e-05 5.0419057516e-05
          5.2897361456e-05 4.4466789404e-05 4.8703750508e-05 4.2521307478e-05 7.3016279202e-05 4.8008721933e-05
          5.4293195717e-05 4.5298547775e-05 4.9051413953e-05 5.3668176406e-05 4.6166496759e-05 4.7742480092e-05
          5.2788949688e-05 4.7107852879e-05 4.7330649977e-05 3.0476161555e-05 6.2274535594e-05 4.9810376368e-05
          2.9624092349e-05 6.2689854531e-05 4.9151822168e-05 2.926311754e-05 6.4608357206e-05 5.1089205954e-05
          4.1970251914e-05 7.3670395068e-05 5.049389074e-05 4.1202656575e-05 7.201970584e-05 4.9579590268e-05
          5.1669248933e-05 4.5036191295e-05 5.0205122534e-05 5.2229755966e-05 4.6995690354e-05 4.9204434617e-05
          3.0232224162e-05 6.185197708e-05 4.8412999604e-05 2.8633417969e-05 6.2585138949e-05 4.8126497859e-05
          4.1719689762e-05 7.2362563515e-05 5.1362316299e-05 3.0533978133e-05 6.1042352172e-05 5.0118189392e-05