<?xml version="1.0"?>
<VTKFile type="UnstructuredGrid" version="0.1" byte_order="LittleEndian" header_type="UInt32" compressor="vtkZLibDataCompressor">
  <UnstructuredGrid>
    <Piece NumberOfPoints="159" NumberOfCells="159">
      <PointData>
        <DataArray type="Int32" Name="id" format="ascii" RangeMin="1" RangeMax="159">
          8 6 5 11 12 13
          21 22 23 32 33 34
          44 45 46 47 48 49
          57 58 67 68 78 79
          80 81 82 83 94 95
          96 97 98 99 113 114
          115 116 117 118 138 139
          140 141 142 143 144 145
          9 4 3 7 14 15
          16 17 24 25 26 30
          31 35 36 37 41 50
          51 52 53 54 59 60
          61 62 63 69 70 71
          72 84 85 86 87 88
          89 100 101 102 103 104
          105 106 107 119 120 121
          122 123 124 125 126 127
          128 129 130 146 147 148
          149 150 151 10 1 18
          19 27 28 38 39 42
          55 56 64 73 74 75
          76 77 90 108 109 110
          111 112 131 132 133 152
          153 154 155 156 157 2
          20 29 40 43 65 66
          91 92 93 134 135 136
          137 158 159
        </DataArray>
        <DataArray type="Int32" Name="type" format="ascii" RangeMin="1" RangeMax="1">
          1 1 1 1 1 1
          1 1 1 1 1 1
          1 1 1 1 1 1
          1 1 1 1 1 1
          1 1 1 1 1 1
          1 1 1 1 1 1
          1 1 1 1 1 1
          1 1 1 1 1 1
          1 1 1 1 1 1
          1 1 1 1 1 1
          1 1 1 1 1 1
          1 1 1 1 1 1
          1 1 1 1 1 1
          1 1 1 1 1 1
          1 1 1 1 1 1
          1 1 1 1 1 1
          1 1 1 1 1 1
          1 1 1 1 1 1
          1 1 1 1 1 1
          1 1 1 1 1 1
          1 1 1 1 1 1
          1 1 1 1 1 1
          1 1 1 1 1 1
          1 1 1 1 1 1
          1 1 1 1 1 1
          1 1 1 1 1 1
          1 1 1
        </DataArray>
        <DataArray type="Float64" Name="diameter" format="ascii" RangeMin="1.0271251479e-06" RangeMax="1.3567062545e-06">
          1.0672010069e-06 1.2914299427e-06 1.0489138276e-06 1.1611397733e-06 1.0936090712e-06 1.2847994138e-06
          1.2177757572e-06 1.0843510298e-06 1.3122608661e-06 1.1729997988e-06 1.0564038784e-06 1.1659662144e-06
          1.1885566044e-06 1.3138716739e-06 1.2596949326e-06 1.1904916516e-06 1.2663218005e-06 1.1780137781e-06
          1.1113666083e-06 1.1451568777e-06 1.1606519104e-06 1.1478278012e-06 1.3006399e-06 1.3545346911e-06
          1.3047135812e-06 1.3116992504e-06 1.1064502676e-06 1.2581609213e-06 1.2838318279e-06 1.2410965733e-06
          1.2452001338e-06 1.2879110533e-06 1.3047760421e-06 1.1804112672e-06 1.211254031e-06 1.163583588e-06
          1.1582055032e-06 1.2034021492e-06 1.1692220695e-06 1.1444340197e-06 1.0980710593e-06 1.1796474016e-06
          1.0833421587e-06 1.1494031004e-06 1.1331770233e-06 1.1520626719e-06 1.058359941e-06 1.1024848972e-06
          1.1166385452e-06 1.352220851e-06 1.2824291011e-06 1.2324938221e-06 1.3393833548e-06 1.1754255393e-06
          1.224697041e-06 1.2004281344e-06 1.266548866e-06 1.2531705526e-06 1.178656637e-06 1.174749245e-06
          1.2586520395e-06 1.3066148505e-06 1.0715935197e-06 1.1594022354e-06 1.2920947639e-06 1.2831409085e-06
          1.2643654988e-06 1.2443529283e-06 1.1811148179e-06 1.2708490986e-06 1.1948601983e-06 1.0835989423e-06
          1.187149441e-06 1.1622376595e-06 1.2266192282e-06 1.1631685419e-06 1.351321202e-06 1.1764389449e-06
          1.0383222606e-06 1.2810411924e-06 1.1407027945e-06 1.127388367e-06 1.3138377476e-06 1.3492265782e-06
          1.2894543965e-06 1.2010207356e-06 1.2800074093e-06 1.2851023043e-06 1.2606271504e-06 1.2773814525e-06
          1.3281478161e-06 1.2589182388e-06 1.2583685639e-06 1.1977891871e-06 1.2184673151e-06 1.1167605692e-06
          1.1960617858e-06 1.189546233e-06 1.1326286258e-06 1.1277973802e-06 1.2276643564e-06 1.2116655028e-06
          1.1910468017e-06 1.1630494357e-06 1.2203215892e-06 1.0319185331e-06 1.0965547115e-06 1.1121075721e-06
          1.1256368024e-06 1.0271251479e-06 1.0708844514e-06 1.3567062545e-06 1.255252249e-06 1.2571732402e-06
          1.1746579597e-06 1.2403127686e-06 1.2614322174e-06 1.1416522279e-06 1.1975553215e-06 1.0676187818e-06
          1.2340443422e-06 1.0428231935e-06 1.1426899919e-06 1.1544153793e-06 1.1126240231e-06 1.0481379373e-06
          1.3122403587e-06 1.3490851728e-06 1.3165757942e-06 1.2472111167e-06 1.2537627648e-06 1.2968879278e-06
          1.1932620872e-06 1.2925806477e-06 1.1175189948e-06 1.1682139037e-06 1.2239401071e-06 1.0698310807e-06
          1.1530133042e-06 1.0807215775e-06 1.0940780697e-06 1.1375458775e-06 1.148756707e-06 1.254171407e-06
          1.3348087056e-06 1.2499824067e-06 1.1877147427e-06 1.3103380656e-06 1.2245650866e-06 1.1859845588e-06
          1.1440415318e-06 1.3428321619e-06 1.172517171e-06 1.1114463659e-06 1.2410605108e-06 1.2015246606e-06
          1.1315225515e-06 1.0477187791e-06 1.0928366259e-06
        </DataArray>
      </PointData>
      <CellData>
      </CellData>
      <Points>
        <DataArray type="Float32" Name="Points" NumberOfComponents="3" format="ascii" RangeMin="8.4488451405e-05" RangeMax="0.00025533837199">
          5.2402854635e-05 4.783139957e-05 5.0377671869e-05 2.8808059142e-05 6.3680243329e-05 5.0455881137e-05
          4.1829545808e-05 7.4208117439e-05 5.1828723372e-05 5.2909392252e-05 4.6106699301e-05 4.8120418796e-05
          2.9877777706e-05 6.392688374e-05 4.9600705097e-05 4.2816289351e-05 7.5407377153e-05 5.0147929869e-05
          2.9373682992e-05 6.2820319727e-05 5.1020950195e-05 5.3340569139e-05 4.4721906306e-05 5.0019418268e-05
          4.1273193347e-05 7.4317285907e-05 4.8730576964e-05 5.238452286e-05 4.6996479796e-05 4.8528560001e-05
          4.098111458e-05 7.5066578574e-05 4.9876514822e-05 2.9698141589e-05 6.1970851675e-05 4.9435722758e-05
          2.9942400943e-05 6.3078856329e-05 4.9423935707e-05 5.3185816796e-05 4.5743883675e-05 4.9610120186e-05
          4.2777486669e-05 7.4966046668e-05 4.9024562031e-05 2.9413800803e-05 6.362721615e-05 5.1816103223e-05
          5.2942195907e-05 4.6283908887e-05 5.1068811445e-05 4.2251762352e-05 7.3721319495e-05 4.9438618589e-05
          5.3950221627e-05 4.7074074246e-05 5.0884955272e-05 3.0601324397e-05 6.2543636886e-05 4.9501999456e-05
          4.2147181375e-05 7.3443545261e-05 5.0304326578e-05 4.1910279833e-05 7.4859053711e-05 4.9439178838e-05
          5.181189772e-05 4.7108071158e-05 5.0813945563e-05 2.9026696211e-05 6.4080901211e-05 4.9177891924e-05
          3.0818122468e-05 6.3487910666e-05 5.0127389841e-05 4.1672024963e-05 7.5732277764e-05 5.0289370847e-05
          2.9152804927e-05 6.208193372e-05 5.0662605645e-05 5.3908210248e-05 4.588572483e-05 5.0815793657e-05
          5.2275085181e-05 4.5493663492e-05 4.8851965403e-05 4.2486444727e-05 7.3732240708e-05 4.8563662858e-05
          5.4196098063e-05 4.6249439038e-05 4.9779206165e-05 4.1871935537e-05 7.5923802797e-05 4.8995778343e-05
          3.0087463529e-05 6.2499042542e-05 5.18946581e-05 5.2211769798e-05 4.5911787311e-05 5.0069596909e-05
          5.2551989938e-05 4.6717559599e-05 4.9533260608e-05 3.0467897886e-05 6.1858721892e-05 4.8821144446e-05
          2.8873559131e-05 6.284097617e-05 4.9128193496e-05 4.1312439862e-05 7.3168885137e-05 5.0020182243e-05
          3.0230201446e-05 6.2167528085e-05 5.048872481e-05 4.1975941713e-05 7.4609110015e-05 5.0460323109e-05
          5.2717892686e-05 4.7512337915e-05 4.9503141781e-05 4.1320479795e-05 7.3968592915e-05 5.082784628e-05
          2.9833479857e-05 6.3894309278e-05 5.0663715228e-05 5.2807095926e-05 4.547176286e-05 5.0670681958e-05
          4.0815746615e-05 7.4882693298e-05 5.0990078307e-05 5.3302977904e-05 4.6860972361e-05 5.0091766752e-05
          4.2995656258e-05 7.3843475548e-05 5.0734903198e-05 2.9175662348e-05 6.2424849602e-05 4.9708720326e-05
          7.4794785178e-05 2.9893904866e-05 5.0279548304e-05 0.0001068585043 5.0563641707e-05 4.9357786338e-05
          0.00013803642651 6.1224425735e-05 5.0259262935e-05 0.00010223318532 7.5449970609e-05 4.9682214012e-05
          7.6733980677e-05 2.8642727557e-05 4.9169717386e-05 0.00010929272685 5.1384518883e-05 5.0537000789e-05
          0.00013740349095 6.1996164732e-05 5.0702135923e-05 9.9879231129e-05 7.5922456745e-05 5.1493661886e-05
          0.00010705338354 5.2408031479e-05 5.0752722018e-05 7.5887808634e-05 2.7944597605e-05 4.874077058e-05
          0.00013928484987 6.2048791733e-05 4.8319157941e-05 0.00010152662435 7.6308613643e-05 4.9317044613e-05
          0.00010076010949 7.5376425229e-05 5.1105122111e-05 7.5274932897e-05 2.8724894946e-05 4.9218877393e-05
          0.0001393903367 6.1815706431e-05 5.1459035603e-05 0.00010753903916 5.1694958529e-05 4.9171776482e-05
          0.00013864491484 6.2078834162e-05 4.985947453e-05 0.00010708033369 5.2586303354e-05 4.9104812206e-05
          7.6598356827e-05 2.9039201763e-05 5.0128779549e-05 0.00010799204756 5.1800707297e-05 5.2022442105e-05
          7.6325908594e-05 2.7898868211e-05 5.0930957514e-05 0.00010148162255 7.4401112215e-05 4.9393609515e-05
          7.5898817158e-05 2.973150913e-05 5.081108975e-05 0.00010075776663 7.588884182e-05 4.9869551731e-05
          0.00013806647621 6.2087870901e-05 4.8880730901e-05 0.00010131912859 7.6517921116e-05 5.1167997299e-05
          0.00010047590331 7.6192307461e-05 4.8905068979e-05 0.00013890158152 6.1055012338e-05 4.9023179599e-05
          0.00010863033822 5.2294322813e-05 5.1004950365e-05 0.00013839486928 6.1030426878e-05 5.1985163736e-05
          0.00010884054791 5.1344519306e-05 4.8490677727e-05 0.00010799230949 5.053706991e-05 4.9390790082e-05
          7.623903366e-05 2.9413800803e-05 4.9431248044e-05 0.00010761902377 5.0808019296e-05 5.092479114e-05
          0.00013839693565 6.2168772274e-05 4.7922065278e-05 7.5473253673e-05 2.8613971153e-05 5.0492675655e-05
          0.00013968211715 6.1587219534e-05 4.9352249334e-05 0.00010103581008 7.5255236879e-05 4.9333688366e-05
          7.4918047176e-05 2.7678192055e-05 4.9665646657e-05 9.9983932159e-05 7.4798052083e-05 5.1637489378e-05
          7.6395510405e-05 2.8815209589e-05 5.1207091019e-05 0.00010854317225 5.1179991715e-05 5.1283321227e-05
          7.6074742537e-05 2.7750158551e-05 4.9841437431e-05 0.00010106154514 7.4516356108e-05 5.0630402257e-05
          0.00013776215201 6.2788101786e-05 4.9807662435e-05 7.4689633038e-05 2.967121145e-05 5.137347398e-05
          0.0001083862735 5.1332277508e-05 5.0072801969e-05 0.00013842535554 6.2305363826e-05 5.1149589126e-05
          9.9807490187e-05 7.627690502e-05 5.038018935e-05 0.00010126070265 7.6250624261e-05 4.8142130254e-05
          0.0001080510483 5.1374012401e-05 4.8370784498e-05 0.0001072105224 5.2055274864e-05 5.0045506214e-05
          7.5661380833e-05 2.9718014048e-05 4.9824076996e-05 0.00010027175449 7.5465170084e-05 5.0369646488e-05
          9.939395386e-05 7.610974717e-05 4.9109319662e-05 0.00013789792138 6.1247468693e-05 4.9169208069e-05
          0.00013862042397 6.1251339503e-05 5.0978116633e-05 0.0001390229445 6.2392871769e-05 4.923826782e-05
          0.00013940657664 6.1850965722e-05 5.0356276915e-05 0.00010154897609 7.5711614045e-05 5.0433958677e-05
          0.00010905283852 5.097623216e-05 4.9457099522e-05 7.6196636655e-05 2.9870059734e-05 4.8605641496e-05
          0.00010734801617 5.1424649428e-05 5.0141370593e-05 0.00022014048591 6.1127597291e-05 4.8759458878e-05
          0.00021728615684 7.8535485954e-05 5.0900285714e-05 0.00022115949832 6.0136993852e-05 5.0099362852e-05
          0.00021847442258 7.8738077718e-05 5.0346028729e-05 0.00021693877352 7.9552082752e-05 5.0939979701e-05
          0.00022197344515 6.0707418015e-05 5.0382685004e-05 0.00022074906155 6.1213766458e-05 5.0460341299e-05
          0.00021853877115 7.7006530773e-05 4.9245394621e-05 0.00021821205155 7.8676057456e-05 4.8835529014e-05
          0.00022106085089 6.0447291617e-05 4.8913865612e-05 0.00022053658904 5.9997692006e-05 4.9577050959e-05
          0.00021763176483 7.7936383605e-05 5.0665916206e-05 0.0002208249789 6.1269638536e-05 4.9643233069e-05
          0.00021939921135 7.8201468568e-05 4.9226691772e-05 0.00022046655067 6.1814600485e-05 5.1534316299e-05
          0.00021797629597 7.8328404925e-05 4.9594877055e-05 0.00021827906312 7.9748839198e-05 4.9290978495e-05
          0.0002214662818 5.9328551288e-05 5.0949678553e-05 0.00021796999499 7.8708762885e-05 5.1917770179e-05
          0.00022171025921 5.9813144617e-05 4.9182515795e-05 0.00021803734126 7.9600715253e-05 5.0575938076e-05
          0.00022074811568 6.0388614656e-05 5.0988641306e-05 0.00022136874031 6.0662227042e-05 4.7866546083e-05
          0.00021949797519 7.8999481048e-05 5.0623464631e-05 0.00021967785142 6.1211103457e-05 5.0609756727e-05
          0.00021814538923 7.9012395872e-05 4.7963807447e-05 0.00021907071641 7.7763208537e-05 4.9930109526e-05
          0.00022027925297 5.9405425418e-05 5.0535007176e-05 0.00021867486066 7.74998407e-05 5.0756269047e-05
          0.00022176116181 6.1760809331e-05 4.9765611038e-05 0.00021885856404 7.9021825513e-05 4.9377758842e-05
          0.00022103801894 6.095041681e-05 5.1555511163e-05 0.00024705947726 2.6741130569e-05 5.1047074521e-05
          0.00024717900669 2.5827413992e-05 5.0455510063e-05 0.00024838015088 2.6548954338e-05 4.8910453188e-05
          0.00024789804593 2.8051372283e-05 4.9136982852e-05 0.00024799452513 2.6224179237e-05 5.1361308579e-05
          0.00024889141787 2.6248613722e-05 5.0613798521e-05 0.0002475346555 2.7081579901e-05 4.845525109e-05
          0.00024816440418 2.6250774681e-05 5.0235750678e-05 0.00024725063122 2.6175801395e-05 4.9255315389e-05
          0.00024798195227 2.5124256354e-05 5.0313188694e-05 0.00024881205172 2.5636565624e-05 4.8324211093e-05
          0.00024829772883 2.8191079764e-05 5.0253340305e-05 0.00024882258731 2.5963243388e-05 4.9487993238e-05
          0.0002477078815 2.7136558856e-05 4.9556016165e-05 0.00024771178141 2.7232248613e-05 5.0254151574e-05
          0.00024796079379 2.5224822821e-05 5.1484887081e-05
        </DataArray>
      </Points>
      <Cells>
        <DataArray type="Int64" Name="connectivity" format="ascii" RangeMin="0" RangeMax="158">
          0 1 2 3 4 5
          6 7 8 9 10 11
          12 13 14 15 16 17
          18 19 20 21 22 23
          24 25 26 27 28 29
          30 31 32 33 34 35
          36 37 38 39 40 41
          42 43 44 45 46 47
          48 49 50 51 52 53
          54 55 56 57 58 59
          60 61 62 63 64 65
          66 67 68 69 70 71
          72 73 74 75 76 77
          78 79 80 81 82 83
          84 85 86 87 88 89
          90 91 92 93 94 95
          96 97 98 99 100 101
          102 103 104 105 106 107
          108 109 110 111 112 113
          114 115 116 117 118 119
          120 121 122 123 124 125
          126 127 128 129 130 131
          132 133 134 135 136 137
          138 139 140 141 142 143
          144 145 146 147 148 149
          150 151 152 153 154 155
          156 157 158
        </DataArray>
        <DataArray type="Int64" Name="offsets" format="ascii" RangeMin="1" RangeMax="159">
          1 2 3 4 5 6
          7 8 9 10 11 12
          13 14 15 16 17 18
          19 20 21 22 23 24
          25 26 27 28 29 30
          31 32 33 34 35 36
          37 38 39 40 41 42
          43 44 45 46 47 48
          49 50 51 52 53 54
          55 56 57 58 59 60
          61 62 63 64 65 66
          67 68 69 70 71 72
          73 74 75 76 77 78
          79 80 81 82 83 84
          85 86 87 88 89 90
          91 92 93 94 95 96
          97 98 99 100 101 102
          103 104 105 106 107 108
          109 110 111 112 113 114
          115 116 117 118 119 120
          121 122 123 124 125 126
          127 128 129 130 131 132
          133 134 135 136 137 138
          139 140 141 142 143 144
          145 146 147 148 149 150
          151 152 153 154 155 156
          157 158 159
        </DataArray>
        <DataArray type="UInt8" Name="types" format="ascii" RangeMin="1" RangeMax="1">
          1 1 1 1 1 1
          1 1 1 1 1 1
          1 1 1 1 1 1
          1 1 1 1 1 1
          1 1 1 1 1 1
          1 1 1 1 1 1
          1 1 1 1 1 1
          1 1 1 1 1 1
          1 1 1 1 1 1
          1 1 1 1 1 1
          1 1 1 1 1 1
          1 1 1 1 1 1
          1 1 1 1 1 1
          1 1 1 1 1 1
          1 1 1 1 1 1
          1 1 1 1 1 1
          1 1 1 1 1 1
          1 1 1 1 1 1
          1 1 1 1 1 1
          1 1 1 1 1 1
          1 1 1 1 1 1
          1 1 1 1 1 1
          1 1 1 1 1 1
          1 1 1 1 1 1
          1 1 1 1 1 1
          1 1 1 1 1 1
          1 1 1
        </DataArray>
      </Cells>
    </Piece>
  </UnstructuredGrid>
</VTKFile>
