<?xml version="1.0"?>
<VTKFile type="UnstructuredGrid" version="0.1" byte_order="LittleEndian" header_type="UInt32" compressor="vtkZLibDataCompressor">
  <UnstructuredGrid>
    <Piece NumberOfPoints="112" NumberOfCells="112">
      <PointData>
        <DataArray type="Int32" Name="id" format="ascii" RangeMin="1" RangeMax="112">
          8 6 5 11 12 13
          21 22 23 32 33 34
          44 45 46 47 48 49
          57 58 67 68 78 79
          80 81 82 83 94 95
          96 97 98 99 9 4
          3 7 14 15 16 17
          24 25 26 30 31 35
          36 37 41 50 51 52
          53 54 59 60 61 62
          63 69 70 71 72 84
          85 86 87 88 89 100
          101 102 103 104 105 106
          107 10 1 18 19 27
          28 38 39 42 55 56
          64 73 74 75 76 77
          90 108 109 110 111 112
          2 20 29 40 43 65
          66 91 92 93
        </DataArray>
        <DataArray type="Int32" Name="type" format="ascii" RangeMin="1" RangeMax="1">
          1 1 1 1 1 1
          1 1 1 1 1 1
          1 1 1 1 1 1
          1 1 1 1 1 1
          1 1 1 1 1 1
          1 1 1 1 1 1
          1 1 1 1 1 1
          1 1 1 1 1 1
          1 1 1 1 1 1
          1 1 1 1 1 1
          1 1 1 1 1 1
          1 1 1 1 1 1
          1 1 1 1 1 1
          1 1 1 1 1 1
          1 1 1 1 1 1
          1 1 1 1 1 1
          1 1 1 1 1 1
          1 1 1 1 1 1
          1 1 1 1
        </DataArray>
        <DataArray type="Float64" Name="diameter" format="ascii" RangeMin="1.0334876286e-06" RangeMax="1.3544115388e-06">
          1.2143247242e-06 1.1493788056e-06 1.2545600809e-06 1.0334876286e-06 1.2205737573e-06 1.1442001569e-06
          1.0838262294e-06 1.2535375464e-06 1.1686564242e-06 1.3372061394e-06 1.2299117468e-06 1.306105093e-06
          1.3159741589e-06 1.1694286526e-06 1.1218429305e-06 1.0595432454e-06 1.1271062664e-06 1.3361789199e-06
          1.2695253427e-06 1.2977381979e-06 1.2475546751e-06 1.2860124776e-06 1.1511088862e-06 1.1989350418e-06
          1.1612013072e-06 1.1681562677e-06 1.2384829658e-06 1.1198425692e-06 1.1426912951e-06 1.1052798426e-06
          1.1083066509e-06 1.1469712808e-06 1.1612568977e-06 1.0506404736e-06 1.2945252794e-06 1.1987138125e-06
          1.1410603679e-06 1.0937785216e-06 1.1870304294e-06 1.3371914797e-06 1.315209235e-06 1.3359423667e-06
          1.1212239651e-06 1.1089772397e-06 1.244500226e-06 1.3195520431e-06 1.1169926715e-06 1.1586925676e-06
          1.2154444486e-06 1.2800321283e-06 1.1496605351e-06 1.3506117184e-06 1.1205457464e-06 1.100453294e-06
          1.0451385391e-06 1.1278169702e-06 1.3535732676e-06 1.2871716717e-06 1.0562838731e-06 1.2699159857e-06
          1.3487077626e-06 1.3038841376e-06 1.1956173401e-06 1.343874617e-06 1.210327633e-06 1.1357463606e-06
          1.2136189256e-06 1.2284272871e-06 1.1624793134e-06 1.1964802079e-06 1.147311229e-06 1.065847683e-06
          1.132877746e-06 1.1404659993e-06 1.1172326297e-06 1.1322852082e-06 1.1754015721e-06 1.1172289105e-06
          1.1196521471e-06 1.2052314377e-06 1.1173503978e-06 1.1168111791e-06 1.2861436428e-06 1.1040521668e-06
          1.120594646e-06 1.2913119448e-06 1.275465844e-06 1.2884326411e-06 1.0962645981e-06 1.2283874238e-06
          1.2477527574e-06 1.259221071e-06 1.2619446045e-06 1.2320131622e-06 1.1680778011e-06 1.2008748486e-06
          1.1662143325e-06 1.1101926632e-06 1.1105749568e-06 1.1544119863e-06 1.0600356387e-06 1.1435307797e-06
          1.1129565792e-06 1.1845144313e-06 1.3227157527e-06 1.3537411127e-06 1.161113406e-06 1.3544115388e-06
          1.2962697404e-06 1.2276203948e-06 1.1916344776e-06 1.2679642415e-06
        </DataArray>
      </PointData>
      <CellData>
      </CellData>
      <Points>
        <DataArray type="Float32" Name="Points" NumberOfComponents="3" format="ascii" RangeMin="8.4644886748e-05" RangeMax="0.00025510928538">
          5.2600240451e-05 4.7285553592e-05 5.0046615797e-05 2.8838960134e-05 6.3713428972e-05 5.0559097872e-05
          4.1636623791e-05 7.4100025813e-05 5.1366718253e-05 5.286204032e-05 4.6084471251e-05 4.8181147577e-05
          2.980510726e-05 6.3734791183e-05 4.9971054978e-05 4.2788058636e-05 7.5457261119e-05 5.0148890296e-05
          2.9369793992e-05 6.2794511905e-05 5.1024861023e-05 5.313091242e-05 4.5093136578e-05 5.0285303587e-05
          4.1277664423e-05 7.4320181739e-05 4.8736030294e-05 5.251669063e-05 4.6915352868e-05 4.9037051213e-05
          4.0936694859e-05 7.491667202e-05 5.0432525313e-05 2.9949387681e-05 6.212444714e-05 4.9074882554e-05
          2.9360573535e-05 6.2926606915e-05 4.9443100579e-05 5.3030056733e-05 4.5783282985e-05 4.9542348279e-05
          4.2633200792e-05 7.4977891927e-05 4.8955029342e-05 2.9351955163e-05 6.3541941927e-05 5.1789233112e-05
          5.287962631e-05 4.6126351663e-05 5.0985054258e-05 4.185763828e-05 7.352657849e-05 4.9660746299e-05
          5.3512048908e-05 4.6901066526e-05 5.0326143537e-05 3.0332012102e-05 6.2420447648e-05 5.0106646086e-05
          4.2472951463e-05 7.3758339568e-05 5.0509122957e-05 4.1975970817e-05 7.4682706327e-05 4.988546425e-05
          5.1826151321e-05 4.7219502449e-05 5.0841757911e-05 2.9116103178e-05 6.4027022745e-05 4.9216396292e-05
          3.0772018363e-05 6.354546349e-05 4.993946277e-05 4.1666236939e-05 7.5740987086e-05 5.0274236855e-05
          2.9313321647e-05 6.250426668e-05 5.0162205298e-05 5.3778916481e-05 4.5858687372e-05 5.0897993788e-05
          5.242133193e-05 4.5541273721e-05 4.895892198e-05 4.2365059926e-05 7.3816525401e-05 4.8800775403e-05
          5.3938649216e-05 4.6215005568e-05 4.9734815548e-05 4.1904851969e-05 7.5884898251e-05 4.8958961997e-05
          2.9942642868e-05 6.2552113377e-05 5.1824859838e-05 5.2386247262e-05 4.6144359658e-05 5.0053229643e-05
          7.476243627e-05 2.9807401006e-05 5.0804148486e-05 0.00010706714966 5.0518992794e-05 4.9484486226e-05
          0.00013823117479 6.122837658e-05 5.0314938562e-05 0.0001021352582 7.547550922e-05 4.9703470722e-05
          7.6718562923e-05 2.8599051802e-05 4.9284139095e-05 0.0001085174008 5.1284707297e-05 5.021787365e-05
          0.00013797472639 6.2168197474e-05 5.0839789765e-05 9.9857868918e-05 7.6097247074e-05 5.0859223848e-05
          0.00010702511645 5.2365463489e-05 5.0741335144e-05 7.6035612437e-05 2.7924052119e-05 4.8912548664e-05
          0.00013906935055 6.2296567194e-05 4.8956026149e-05 0.00010124602704 7.6096512203e-05 4.8785288527e-05
          0.00010047229443 7.5375239248e-05 5.0790513342e-05 7.5329342508e-05 2.8745955206e-05 4.9255872e-05
          0.0001390989928 6.1830818595e-05 5.0718936109e-05 0.00010780665616 5.1591334341e-05 4.8858422815e-05
          0.0001388257806 6.2110259023e-05 4.9834063248e-05 0.00010720823047 5.2148774557e-05 4.9655322073e-05
          7.6618300227e-05 2.8983138691e-05 4.9980411859e-05 0.00010799667507 5.1715720474e-05 5.2016886912e-05
          7.6332536992e-05 2.7914198654e-05 5.0828777603e-05 0.00010132815805 7.4415263953e-05 4.9446738558e-05
          7.5871874287e-05 2.9715991332e-05 5.0247344916e-05 0.00010068191477 7.5701878814e-05 5.0079193898e-05
          0.00013814774866 6.2006394728e-05 4.9088663218e-05 0.00010143957479 7.6121781603e-05 5.0761191233e-05
          9.996490553e-05 7.6084041211e-05 4.904812522e-05 0.00013836867583 6.122062041e-05 4.9169109843e-05
          0.00010880737682 5.2167975809e-05 5.0876085879e-05 0.00013852962002 6.1137128796e-05 5.1431750762e-05
          0.00010889757687 5.1155057008e-05 4.9078622396e-05 0.00010800926248 5.086011879e-05 4.9613845476e-05
          7.6010248449e-05 2.9601924325e-05 4.9281345127e-05 0.00010739755817 5.1286348025e-05 5.0605172873e-05
          0.0001385659998 6.2215840444e-05 4.795325367e-05 7.5510564784e-05 2.8605923944e-05 5.0385791837e-05
          0.00013965608377 6.1516293499e-05 4.9293637858e-05 0.00010111142183 7.5272633694e-05 4.9418773415e-05
          7.5034193287e-05 2.7600199246e-05 4.9622191e-05 0.00010013196879 7.4790637882e-05 5.1545906899e-05
          7.6400057878e-05 2.8873779229e-05 5.1006649301e-05 0.00010845741781 5.1250543038e-05 5.1112820074e-05
          7.5969197496e-05 2.7737873097e-05 4.9893926189e-05 0.00010105599358 7.4546085671e-05 5.0607712183e-05
          0.00013784084877 6.2733291998e-05 4.9871869123e-05 0.00022027168598 6.1157239543e-05 4.895672464e-05
          0.00021743268007 7.8560799011e-05 5.0861628552e-05 0.00022106684628 6.0250036768e-05 5.0087593991e-05
          0.00021897508122 7.8934397607e-05 5.0521739468e-05 0.00021712719172 7.954218745e-05 5.0787490181e-05
          0.00022185775742 6.0630212829e-05 5.0319595175e-05 0.00022026678198 6.1105878558e-05 5.0477272453e-05
          0.0002187993814 7.7404591138e-05 4.9589350965e-05 0.00021815765649 7.897264004e-05 4.8551424698e-05
          0.00022102848743 6.0456641222e-05 4.90337261e-05 0.00022049706604 5.9658847022e-05 5.0114285841e-05
          0.00021817997913 7.7884054917e-05 5.0604037824e-05 0.0002211718529 6.1408449255e-05 4.9732763728e-05
          0.00021906217444 7.8735647548e-05 4.9275735364e-05 0.00022082713258 6.1178041506e-05 5.1499642723e-05
          0.00021806139557 7.8296528955e-05 4.9511276302e-05 0.0002182641183 7.9364413978e-05 4.9560254411e-05
          0.00022141289082 5.9310623328e-05 5.0947845011e-05 0.00021793889755 7.8666576883e-05 5.1873488701e-05
          0.00022168809664 5.9812700783e-05 4.9212216254e-05 0.00021804402058 7.9365578131e-05 5.0356506108e-05
          0.00022100245405 6.070901145e-05 5.0929644203e-05 0.00022133877792 6.0633898102e-05 4.7984656703e-05
          0.00024711509468 2.6751851692e-05 5.108050027e-05 0.00024745054543 2.5814175387e-05 5.0349564845e-05
          0.00024858838879 2.596072045e-05 4.8676440201e-05 0.00024806364672 2.8111197025e-05 4.9697609938e-05
          0.00024810803006 2.6339492251e-05 5.1081726269e-05 0.00024880896672 2.6056686693e-05 4.9958929594e-05
          0.0002477154485 2.7069052521e-05 4.9150512496e-05 0.00024792947806 2.6729761885e-05 5.01944196e-05
          0.00024735921761 2.6158722903e-05 4.9416852562e-05 0.00024780051899 2.5216237191e-05 5.0916380133e-05
        </DataArray>
      </Points>
      <Cells>
        <DataArray type="Int64" Name="connectivity" format="ascii" RangeMin="0" RangeMax="111">
          0 1 2 3 4 5
          6 7 8 9 10 11
          12 13 14 15 16 17
          18 19 20 21 22 23
          24 25 26 27 28 29
          30 31 32 33 34 35
          36 37 38 39 40 41
          42 43 44 45 46 47
          48 49 50 51 52 53
          54 55 56 57 58 59
          60 61 62 63 64 65
          66 67 68 69 70 71
          72 73 74 75 76 77
          78 79 80 81 82 83
          84 85 86 87 88 89
          90 91 92 93 94 95
          96 97 98 99 100 101
          102 103 104 105 106 107
          108 109 110 111
        </DataArray>
        <DataArray type="Int64" Name="offsets" format="ascii" RangeMin="1" RangeMax="112">
          1 2 3 4 5 6
          7 8 9 10 11 12
          13 14 15 16 17 18
          19 20 21 22 23 24
          25 26 27 28 29 30
          31 32 33 34 35 36
          37 38 39 40 41 42
          43 44 45 46 47 48
          49 50 51 52 53 54
          55 56 57 58 59 60
          61 62 63 64 65 66
          67 68 69 70 71 72
          73 74 75 76 77 78
          79 80 81 82 83 84
          85 86 87 88 89 90
          91 92 93 94 95 96
          97 98 99 100 101 102
          103 104 105 106 107 108
          109 110 111 112
        </DataArray>
        <DataArray type="UInt8" Name="types" format="ascii" RangeMin="1" RangeMax="1">
          1 1 1 1 1 1
          1 1 1 1 1 1
          1 1 1 1 1 1
          1 1 1 1 1 1
          1 1 1 1 1 1
          1 1 1 1 1 1
          1 1 1 1 1 1
          1 1 1 1 1 1
          1 1 1 1 1 1
          1 1 1 1 1 1
          1 1 1 1 1 1
          1 1 1 1 1 1
          1 1 1 1 1 1
          1 1 1 1 1 1
          1 1 1 1 1 1
          1 1 1 1 1 1
          1 1 1 1 1 1
          1 1 1 1 1 1
          1 1 1 1
        </DataArray>
      </Cells>
    </Piece>
  </UnstructuredGrid>
</VTKFile>
