<?xml version="1.0"?>
<VTKFile type="UnstructuredGrid" version="0.1" byte_order="LittleEndian" header_type="UInt32" compressor="vtkZLibDataCompressor">
  <UnstructuredGrid>
    <Piece NumberOfPoints="188" NumberOfCells="188">
      <PointData>
        <DataArray type="Int32" Name="id" format="ascii" RangeMin="1" RangeMax="188">
          8 6 5 11 12 13
          21 22 23 32 33 34
          44 45 46 47 48 49
          57 58 67 68 78 79
          80 81 82 83 94 95
          96 97 98 99 113 114
          115 116 117 118 138 139
          140 141 142 143 144 145
          160 161 162 163 164 165
          166 167 168 9 4 3
          7 14 15 16 17 24
          25 26 30 31 35 36
          37 41 50 51 52 53
          54 59 60 61 62 63
          69 70 71 72 84 85
          86 87 88 89 100 101
          102 103 104 105 106 107
          119 120 121 122 123 124
          125 126 127 128 129 130
          146 147 148 149 150 151
          169 170 171 172 173 174
          175 176 177 178 179 10
          1 18 19 27 28 38
          39 42 55 56 64 73
          74 75 76 77 90 108
          109 110 111 112 131 132
          133 152 153 154 155 156
          157 180 181 182 183 184
          185 2 20 29 40 43
          65 66 91 92 93 134
          135 136 137 158 159 186
          187 188
        </DataArray>
        <DataArray type="Int32" Name="type" format="ascii" RangeMin="1" RangeMax="1">
          1 1 1 1 1 1
          1 1 1 1 1 1
          1 1 1 1 1 1
          1 1 1 1 1 1
          1 1 1 1 1 1
          1 1 1 1 1 1
          1 1 1 1 1 1
          1 1 1 1 1 1
          1 1 1 1 1 1
          1 1 1 1 1 1
          1 1 1 1 1 1
          1 1 1 1 1 1
          1 1 1 1 1 1
          1 1 1 1 1 1
          1 1 1 1 1 1
          1 1 1 1 1 1
          1 1 1 1 1 1
          1 1 1 1 1 1
          1 1 1 1 1 1
          1 1 1 1 1 1
          1 1 1 1 1 1
          1 1 1 1 1 1
          1 1 1 1 1 1
          1 1 1 1 1 1
          1 1 1 1 1 1
          1 1 1 1 1 1
          1 1 1 1 1 1
          1 1 1 1 1 1
          1 1 1 1 1 1
          1 1 1 1 1 1
          1 1 1 1 1 1
          1 1
        </DataArray>
        <DataArray type="Float64" Name="diameter" format="ascii" RangeMin="1.0187933649e-06" RangeMax="1.3598394269e-06">
          1.1294240218e-06 1.0779742162e-06 1.1096584062e-06 1.2288398757e-06 1.1574081833e-06 1.3592045717e-06
          1.2888185221e-06 1.1475739745e-06 1.1146815649e-06 1.2413913984e-06 1.11758222e-06 1.2339865073e-06
          1.2578947784e-06 1.1694401574e-06 1.3326462426e-06 1.2599427127e-06 1.3401545272e-06 1.2462347784e-06
          1.1761646928e-06 1.2119631927e-06 1.2278674522e-06 1.2143006746e-06 1.0816915711e-06 1.0749965385e-06
          1.112329209e-06 1.1014446307e-06 1.1709985112e-06 1.331517829e-06 1.3586854744e-06 1.3129708173e-06
          1.3178013645e-06 1.0612587062e-06 1.1636650789e-06 1.2492349915e-06 1.2818760386e-06 1.2314648829e-06
          1.2257730506e-06 1.273093438e-06 1.2374323028e-06 1.2107103529e-06 1.1620939486e-06 1.2479630081e-06
          1.1465423183e-06 1.2164188976e-06 1.1988014425e-06 1.219233535e-06 1.1196515618e-06 1.1668018084e-06
          1.0915522386e-06 1.0887325015e-06 1.0288492411e-06 1.1113887536e-06 1.2020464126e-06 1.0790949251e-06
          1.1013318449e-06 1.1008449835e-06 1.0187933649e-06 1.1846761619e-06 1.1721795745e-06 1.3575097985e-06
          1.306992632e-06 1.0994018748e-06 1.2474750795e-06 1.2963977751e-06 1.2752365458e-06 1.3451017876e-06
          1.3313287983e-06 1.2476619038e-06 1.2473604711e-06 1.3347319981e-06 1.1269153019e-06 1.1343307024e-06
          1.2304120785e-06 1.1022519169e-06 1.0521042696e-06 1.341946475e-06 1.322595121e-06 1.2548863912e-06
          1.3476663156e-06 1.2676639185e-06 1.1490977141e-06 1.2566519249e-06 1.2340755447e-06 1.3024365368e-06
          1.2312670475e-06 1.1954771964e-06 1.2453143753e-06 1.1019678417e-06 1.3595010498e-06 1.2106958752e-06
          1.1964374585e-06 1.094649179e-06 1.0776737641e-06 1.0866714886e-06 1.2736171364e-06 1.3598394269e-06
          1.0787278298e-06 1.337978743e-06 1.3556805394e-06 1.1648229922e-06 1.335014288e-06 1.3320406206e-06
          1.2707713727e-06 1.2931551681e-06 1.182142088e-06 1.2710095385e-06 1.2630720606e-06 1.2020548626e-06
          1.1977447636e-06 1.3024668583e-06 1.2849053328e-06 1.2656803049e-06 1.2311409681e-06 1.2917661594e-06
          1.0923329162e-06 1.1607532644e-06 1.1793295648e-06 1.1946344644e-06 1.0901491482e-06 1.1364728508e-06
          1.1037491791e-06 1.1557868329e-06 1.07222502e-06 1.0683734969e-06 1.1095575457e-06 1.077686788e-06
          1.1211590354e-06 1.1891228751e-06 1.0800254687e-06 1.0883296215e-06 1.0712548347e-06 1.1797874332e-06
          1.3285282839e-06 1.3323040709e-06 1.2432292589e-06 1.3127167032e-06 1.3368175719e-06 1.2098793246e-06
          1.2674632667e-06 1.1299416106e-06 1.3077929502e-06 1.1072279187e-06 1.2093951436e-06 1.2234052239e-06
          1.1775740574e-06 1.1107764596e-06 1.0843601371e-06 1.1344342818e-06 1.1236655172e-06 1.3200177461e-06
          1.3311951108e-06 1.0776920313e-06 1.2645734777e-06 1.0787175598e-06 1.1827547758e-06 1.2414667388e-06
          1.300538694e-06 1.1322830537e-06 1.2242233669e-06 1.1438092892e-06 1.1594620531e-06 1.2039507387e-06
          1.2174083796e-06 1.0997476144e-06 1.1197236252e-06 1.1321160902e-06 1.0949714813e-06 1.1009182836e-06
          1.1013865456e-06 1.3297643031e-06 1.1516832813e-06 1.3270237637e-06 1.2624280743e-06 1.1062329547e-06
          1.3000398737e-06 1.2574676169e-06 1.2145533339e-06 1.1332011569e-06 1.2431885069e-06 1.179949199e-06
          1.3193586193e-06 1.2755793751e-06 1.1997230114e-06 1.1108681193e-06 1.1587053621e-06 1.0933924615e-06
          1.0991464383e-06 1.1268734138e-06
        </DataArray>
      </PointData>
      <CellData>
      </CellData>
      <Points>
        <DataArray type="Float32" Name="Points" NumberOfComponents="3" format="ascii" RangeMin="8.4519854518e-05" RangeMax="0.00025546022859">
          5.2368239267e-05 4.7892288421e-05 5.042822886e-05 2.8763979572e-05 6.3622792368e-05 5.1008653827e-05
          4.1830367991e-05 7.4208750448e-05 5.1829058066e-05 5.2948551456e-05 4.6116212616e-05 4.8048405006e-05
          2.992438931e-05 6.4077597926e-05 4.9590020353e-05 4.2943604058e-05 7.5307711086e-05 5.010800669e-05
          2.9386230381e-05 6.2822007749e-05 5.0997412472e-05 5.3328316426e-05 4.4721091399e-05 4.9994221627e-05
          4.0971270209e-05 7.4432791735e-05 4.9183017836e-05 5.2400544519e-05 4.7002820793e-05 4.8504301958e-05
          4.0984650695e-05 7.5052994362e-05 4.9884325563e-05 2.9770535548e-05 6.1869868659e-05 4.9466532801e-05
          2.9935783459e-05 6.3080035034e-05 4.9294860219e-05 5.3200616094e-05 4.603996058e-05 4.916690159e-05
          4.2824645789e-05 7.5041782111e-05 4.9003152526e-05 2.9496777643e-05 6.3629377109e-05 5.1834202168e-05
          5.2906474593e-05 4.642274871e-05 5.1120605349e-05 4.2245825171e-05 7.3764247645e-05 4.9460224545e-05
          5.4020565585e-05 4.7065179388e-05 5.0950951845e-05 3.0695093301e-05 6.2464627263e-05 4.9497786677e-05
          4.2224241042e-05 7.3297742347e-05 5.034282367e-05 4.1905001126e-05 7.4862015026e-05 4.9435362598e-05
          5.1803577662e-05 4.7112775064e-05 5.1357408665e-05 2.9243330573e-05 6.4289721195e-05 4.8701909691e-05
          3.137504973e-05 6.345766451e-05 5.0088347052e-05 4.2100546125e-05 7.5563839346e-05 5.0319886213e-05
          2.9087692383e-05 6.1923135945e-05 5.0694103265e-05 5.396097913e-05 4.5913497161e-05 5.0830021792e-05
          5.2204391977e-05 4.5447359298e-05 4.8813741159e-05 4.2508720071e-05 7.3751420132e-05 4.8470134061e-05
          5.4247862863e-05 4.6277575166e-05 4.9794678489e-05 4.1771490942e-05 7.5793577707e-05 4.949925642e-05
          3.0283395972e-05 6.2407816586e-05 5.1364419051e-05 5.2161089116e-05 4.5828921429e-05 5.0042683142e-05
          5.2441511798e-05 4.6703862608e-05 4.953143798e-05 3.0553859688e-05 6.1871825892e-05 4.8805170081e-05
          2.884490641e-05 6.2855760916e-05 4.8981946748e-05 4.1330877139e-05 7.3088682257e-05 4.9993948778e-05
          3.0242585126e-05 6.2143190007e-05 5.0448488764e-05 4.1993265768e-05 7.4623108958e-05 5.0511371228e-05
          5.2759536629e-05 4.7628167522e-05 4.9503898481e-05 4.1265742766e-05 7.3943047028e-05 5.08358753e-05
          2.9815786547e-05 6.396984827e-05 5.0737737183e-05 5.2806102758e-05 4.5383625547e-05 5.06881006e-05
          4.0811017243e-05 7.4915195e-05 5.1026407164e-05 5.332046203e-05 4.6869892685e-05 5.0085698604e-05
          4.3037729483e-05 7.3847157182e-05 5.0723025197e-05 2.9144919608e-05 6.2391954998e-05 4.9808189942e-05
          2.8942626159e-05 6.3678773586e-05 5.0141672546e-05 4.1557697841e-05 7.4202580436e-05 4.8269346735e-05
          5.3279392887e-05 4.5619344746e-05 5.0031085266e-05 5.1779697969e-05 4.7086548875e-05 5.0202794228e-05
          2.866171053e-05 6.4027786721e-05 4.9514350394e-05 3.0279721614e-05 6.3386876718e-05 5.0210139307e-05
          4.1139221139e-05 7.5880125223e-05 5.0336140703e-05 4.1971296014e-05 7.6055483078e-05 4.8467773013e-05
          3.0018803955e-05 6.2613762566e-05 5.2389848861e-05 7.4751267675e-05 2.982209844e-05 5.0263253797e-05
          0.00010662968998 5.0706330512e-05 4.8832283937e-05 0.00013794527331 6.1083410401e-05 5.0238948461e-05
          0.00010231698252 7.5430740253e-05 4.9677517381e-05 7.7137163316e-05 2.8979093258e-05 4.9463447795e-05
          0.00010951302102 5.1299004554e-05 5.0527596613e-05 0.00013738131383 6.1980492319e-05 5.0754901167e-05
          9.9860211776e-05 7.5888434367e-05 5.1517246902e-05 0.00010709100752 5.2329418395e-05 5.0869890401e-05
          7.5691423262e-05 2.7976211641e-05 4.8528469051e-05 0.00013925122039 6.1977960286e-05 4.824537973e-05
          0.00010158956866 7.6405500295e-05 4.9310594477e-05 0.00010086342081 7.5353222201e-05 5.1247527153e-05
          7.5544485298e-05 2.911071897e-05 4.895848906e-05 0.00013939845667 6.1830847699e-05 5.1577855629e-05
          0.00010752368689 5.1679799071e-05 4.9124442739e-05 0.00013831049728 6.1796243244e-05 4.9622864026e-05
          0.00010659794498 5.2484043408e-05 4.9305686844e-05 7.6655771409e-05 2.9090386306e-05 5.0293452659e-05
          0.00010798441508 5.1829614677e-05 5.2025825426e-05 7.6368552982e-05 2.7810643587e-05 5.108608093e-05
          0.000101542435 7.4398856668e-05 4.9418453273e-05 7.5857773481e-05 2.9734968848e-05 5.0826005463e-05
          0.00010075580212 7.5901807577e-05 4.9831731303e-05 0.00013811870303 6.2198865635e-05 4.886440729e-05
          0.00010128377471 7.6558710134e-05 5.1178256399e-05 0.00010042697249 7.6263138908e-05 4.8863654229e-05
          0.00013893540017 6.1047685449e-05 4.893487494e-05 0.0001089082798 5.2069313824e-05 5.0718659622e-05
          0.00013835556456 6.106269575e-05 5.2002553275e-05 0.00010884967196 5.1373295719e-05 4.8439895181e-05
          0.00010796984134 5.0489259593e-05 4.9274640332e-05 7.6306299889e-05 2.9480928788e-05 4.9330865295e-05
          0.00010758212738 5.0779595767e-05 5.0913651648e-05 0.00013866461813 6.2131519371e-05 4.7448531404e-05
          7.530554285e-05 2.8342539736e-05 5.0973641919e-05 0.00013993986067 6.1900223955e-05 4.8969191994e-05
          0.00010099601786 7.5252435636e-05 4.923731467e-05 7.4996583862e-05 2.7629861506e-05 4.9727394071e-05
          0.00010025594383 7.4836687418e-05 5.2122235502e-05 7.637332601e-05 2.8828399081e-05 5.1376475312e-05
          0.00010860752809 5.1117895055e-05 5.1374525356e-05 7.5977994129e-05 2.7583690098e-05 4.9244412367e-05
          0.00010105597903 7.447405369e-05 5.0661124988e-05 0.00013776757987 6.2833569245e-05 4.978389552e-05
          7.4694224168e-05 2.96475082e-05 5.1414273912e-05 0.00010838366143 5.1382521633e-05 5.0082719099e-05
          0.00013844411296 6.2314400566e-05 5.1156312111e-05 9.9838944152e-05 7.6321099186e-05 5.0418861065e-05
          0.00010126591951 7.6265678217e-05 4.8141573643e-05 0.0001080361908 5.1289527619e-05 4.82876967e-05
          0.0001072129744 5.2203817177e-05 4.9956968724e-05 7.5607364124e-05 2.9924900446e-05 4.9809470511e-05
          0.00010013852443 7.5296869909e-05 5.0308608479e-05 9.937165305e-05 7.6098054706e-05 4.9154834414e-05
          0.00013780403242 6.1090751842e-05 4.9040463637e-05 0.00013869674876 6.1222861405e-05 5.0981947425e-05
          0.00013906395179 6.2388091465e-05 4.9205307732e-05 0.00013952649897 6.1857499531e-05 5.0396276492e-05
          0.00010155674681 7.566887507e-05 5.0433252909e-05 0.00010911066056 5.0945011026e-05 4.9399048294e-05
          7.6213378634e-05 2.9902872484e-05 4.8510191846e-05 0.00010734448733 5.1360548241e-05 5.0139693485e-05
          0.00010705307068 5.0444745284e-05 4.9838039558e-05 7.6598240412e-05 2.8422704418e-05 4.8700330808e-05
          7.4905452493e-05 2.8370181099e-05 4.9310136092e-05 0.00013895337179 6.2480401539e-05 5.0147853472e-05
          0.00010756288248 5.270283873e-05 4.8850986786e-05 0.00010832090629 5.2618310292e-05 5.1352311857e-05
          0.00013793409744 6.2121493102e-05 4.8232930567e-05 7.5630094216e-05 2.8819715226e-05 5.0100657973e-05
          0.00013943536032 6.1293016188e-05 4.9733815104e-05 9.9651777418e-05 7.4771443906e-05 5.1190203521e-05
          7.6195858128e-05 2.7783507903e-05 5.0294733228e-05 0.00022025482031 6.1054430262e-05 4.9185709941e-05
          0.00021718081553 7.8514691268e-05 5.0928105338e-05 0.00022120615176 6.0095466324e-05 5.0132432079e-05
          0.00021851474594 7.8745797509e-05 5.0348262448e-05 0.00021676249162 7.9506797192e-05 5.0978243962e-05
          0.00022203946719 6.0707214288e-05 5.0429789553e-05 0.00022079255723 6.1299419031e-05 5.0500995712e-05
          0.00021851412021 7.6999676821e-05 4.9239748478e-05 0.00021830399055 7.8626027971e-05 4.8770281865e-05
          0.00022109133715 6.0474641941e-05 4.8886307923e-05 0.00022040626209 6.0035217757e-05 4.9572681746e-05
          0.00021757595823 7.7747092291e-05 5.0705752074e-05 0.00022097793408 6.1324273702e-05 4.9648333516e-05
          0.00021937589918 7.8155688243e-05 4.9141213822e-05 0.00022040614567 6.1889681092e-05 5.1529212215e-05
          0.00021779339295 7.8351564298e-05 4.9197697081e-05 0.0002178302675 7.9985205957e-05 4.9567534006e-05
          0.00022200656531 5.9448488173e-05 5.1105991588e-05 0.00021798355738 7.8739925812e-05 5.1931212511e-05
          0.00022172152239 5.9819682065e-05 4.915242971e-05 0.00021845847368 7.9798141087e-05 5.0292386732e-05
          0.0002205944329 6.0322068748e-05 5.1060094847e-05 0.00022154564795 6.0967337049e-05 4.7419285693e-05
          0.00021950916562 7.9025456216e-05 5.0605813158e-05 0.0002196594578 6.1195016315e-05 5.0648191973e-05
          0.00021818169625 7.9020843259e-05 4.7942863603e-05 0.00021910332725 7.7754666563e-05 4.995486961e-05
          0.00022021308541 5.947002137e-05 5.0456797908e-05 0.00021870683122 7.7436576248e-05 5.0774098781e-05
          0.00022183053079 6.1815291701e-05 4.9764668802e-05 0.00021894292149 7.9014833318e-05 4.9495756684e-05
          0.00022110351711 6.1049242504e-05 5.1590897783e-05 0.00021987246873 6.1127029767e-05 4.8238860472e-05
          0.00021808322344 7.8266166383e-05 5.0086458941e-05 0.00021872400248 7.9674275185e-05 4.8909128964e-05
          0.00022100516071 5.922751734e-05 5.0773851399e-05 0.00021770832245 7.9466066381e-05 5.1000020903e-05
          0.00022117685876 6.0365804529e-05 4.8107944167e-05 0.00024701593793 2.6761104891e-05 5.100681301e-05
          0.000246706506 2.5867904696e-05 5.0157585065e-05 0.00024843035499 2.6679608709e-05 4.8846293794e-05
          0.00024793890771 2.8055459552e-05 4.9087018851e-05 0.00024779443629 2.6177036489e-05 5.0869344705e-05
          0.00024899779237 2.6264346161e-05 5.0697257393e-05 0.00024745331029 2.7049667551e-05 4.8463509302e-05
          0.00024804394343 2.6269803129e-05 5.0121154345e-05 0.00024685249082 2.6367650207e-05 4.9583766668e-05
          0.00024807080626 2.5107765396e-05 5.0272508815e-05 0.0002488247992 2.5643765184e-05 4.8319994676e-05
          0.00024834909709 2.8210637538e-05 5.0268245104e-05 0.00024880992714 2.5892897611e-05 4.9514354032e-05
          0.00024766876595 2.7105266781e-05 4.9562971981e-05 0.0002477428061 2.730056076e-05 5.0294627727e-05
          0.00024803803535 2.5227258448e-05 5.1537703257e-05 0.00024738148204 2.5609037039e-05 5.097372923e-05
          0.00024821507395 2.629620576e-05 5.184647307e-05 0.00024755604682 2.5949842893e-05 4.8769346904e-05
        </DataArray>
      </Points>
      <Cells>
        <DataArray type="Int64" Name="connectivity" format="ascii" RangeMin="0" RangeMax="187">
          0 1 2 3 4 5
          6 7 8 9 10 11
          12 13 14 15 16 17
          18 19 20 21 22 23
          24 25 26 27 28 29
          30 31 32 33 34 35
          36 37 38 39 40 41
          42 43 44 45 46 47
          48 49 50 51 52 53
          54 55 56 57 58 59
          60 61 62 63 64 65
          66 67 68 69 70 71
          72 73 74 75 76 77
          78 79 80 81 82 83
          84 85 86 87 88 89
          90 91 92 93 94 95
          96 97 98 99 100 101
          102 103 104 105 106 107
          108 109 110 111 112 113
          114 115 116 117 118 119
          120 121 122 123 124 125
          126 127 128 129 130 131
          132 133 134 135 136 137
          138 139 140 141 142 143
          144 145 146 147 148 149
          150 151 152 153 154 155
          156 157 158 159 160 161
          162 163 164 165 166 167
          168 169 170 171 172 173
          174 175 176 177 178 179
          180 181 182 183 184 185
          186 187
        </DataArray>
        <DataArray type="Int64" Name="offsets" format="ascii" RangeMin="1" RangeMax="188">
          1 2 3 4 5 6
          7 8 9 10 11 12
          13 14 15 16 17 18
          19 20 21 22 23 24
          25 26 27 28 29 30
          31 32 33 34 35 36
          37 38 39 40 41 42
          43 44 45 46 47 48
          49 50 51 52 53 54
          55 56 57 58 59 60
          61 62 63 64 65 66
          67 68 69 70 71 72
          73 74 75 76 77 78
          79 80 81 82 83 84
          85 86 87 88 89 90
          91 92 93 94 95 96
          97 98 99 100 101 102
          103 104 105 106 107 108
          109 110 111 112 113 114
          115 116 117 118 119 120
          121 122 123 124 125 126
          127 128 129 130 131 132
          133 134 135 136 137 138
          139 140 141 142 143 144
          145 146 147 148 149 150
          151 152 153 154 155 156
          157 158 159 160 161 162
          163 164 165 166 167 168
          169 170 171 172 173 174
          175 176 177 178 179 180
          181 182 183 184 185 186
          187 188
        </DataArray>
        <DataArray type="UInt8" Name="types" format="ascii" RangeMin="1" RangeMax="1">
          1 1 1 1 1 1
          1 1 1 1 1 1
          1 1 1 1 1 1
          1 1 1 1 1 1
          1 1 1 1 1 1
          1 1 1 1 1 1
          1 1 1 1 1 1
          1 1 1 1 1 1
          1 1 1 1 1 1
          1 1 1 1 1 1
          1 1 1 1 1 1
          1 1 1 1 1 1
          1 1 1 1 1 1
          1 1 1 1 1 1
          1 1 1 1 1 1
          1 1 1 1 1 1
          1 1 1 1 1 1
          1 1 1 1 1 1
          1 1 1 1 1 1
          1 1 1 1 1 1
          1 1 1 1 1 1
          1 1 1 1 1 1
          1 1 1 1 1 1
          1 1 1 1 1 1
          1 1 1 1 1 1
          1 1 1 1 1 1
          1 1 1 1 1 1
          1 1 1 1 1 1
          1 1 1 1 1 1
          1 1 1 1 1 1
          1 1 1 1 1 1
          1 1
        </DataArray>
      </Cells>
    </Piece>
  </UnstructuredGrid>
</VTKFile>
