<?xml version="1.0"?>
<VTKFile type="UnstructuredGrid" version="0.1" byte_order="LittleEndian" header_type="UInt32" compressor="vtkZLibDataCompressor">
  <UnstructuredGrid>
    <Piece NumberOfPoints="77" NumberOfCells="77">
      <PointData>
        <DataArray type="Int32" Name="id" format="ascii" RangeMin="1" RangeMax="77">
          8 6 5 11 12 13
          21 22 23 32 33 34
          44 45 46 47 48 49
          57 58 67 68 9 4
          3 7 14 15 16 17
          24 25 26 30 31 35
          36 37 41 50 51 52
          53 54 59 60 61 62
          63 69 70 71 72 10
          1 18 19 27 28 38
          39 42 55 56 64 73
          74 75 76 77 2 20
          29 40 43 65 66
        </DataArray>
        <DataArray type="Int32" Name="type" format="ascii" RangeMin="1" RangeMax="1">
          1 1 1 1 1 1
          1 1 1 1 1 1
          1 1 1 1 1 1
          1 1 1 1 1 1
          1 1 1 1 1 1
          1 1 1 1 1 1
          1 1 1 1 1 1
          1 1 1 1 1 1
          1 1 1 1 1 1
          1 1 1 1 1 1
          1 1 1 1 1 1
          1 1 1 1 1 1
          1 1 1 1 1
        </DataArray>
        <DataArray type="Float64" Name="diameter" format="ascii" RangeMin="1.0124992893e-06" RangeMax="1.3576772412e-06">
          1.3221994559e-06 1.3138616235e-06 1.1137161752e-06 1.2197706987e-06 1.332817155e-06 1.2932955437e-06
          1.3044687109e-06 1.3311682721e-06 1.2726578138e-06 1.1868042824e-06 1.0918350004e-06 1.1594846376e-06
          1.168245824e-06 1.2744116338e-06 1.268961941e-06 1.2445657519e-06 1.2190903547e-06 1.1861720285e-06
          1.1267358629e-06 1.1520569915e-06 1.1074972353e-06 1.1416375506e-06 1.1459220797e-06 1.3027962087e-06
          1.0124992893e-06 1.2054943782e-06 1.3383499679e-06 1.1838662605e-06 1.1670271383e-06 1.1813275974e-06
          1.3126768931e-06 1.2486538556e-06 1.3457716445e-06 1.1685211343e-06 1.260029557e-06 1.3136885555e-06
          1.0785026586e-06 1.1329913463e-06 1.2839719992e-06 1.194154626e-06 1.2473999523e-06 1.2455136402e-06
          1.2407737995e-06 1.25299361e-06 1.1981917376e-06 1.1403472323e-06 1.2173442942e-06 1.1238642009e-06
          1.1935942132e-06 1.1569780179e-06 1.0576020148e-06 1.1924628468e-06 1.0715488923e-06 1.0690382765e-06
          1.2455854709e-06 1.2446150736e-06 1.1416134601e-06 1.2634903196e-06 1.219418391e-06 1.1453915427e-06
          1.1321355772e-06 1.1436452326e-06 1.2520963813e-06 1.3349856605e-06 1.1075367442e-06 1.1169269912e-06
          1.1201337848e-06 1.0927936214e-06 1.0368152481e-06 1.0659267328e-06 1.3090998017e-06 1.3258329858e-06
          1.1701194966e-06 1.196156524e-06 1.3576772412e-06 1.1981586707e-06 1.1481359449e-06
        </DataArray>
      </PointData>
      <CellData>
      </CellData>
      <Points>
        <DataArray type="Float32" Name="Points" NumberOfComponents="3" format="ascii" RangeMin="8.4648075713e-05" RangeMax="0.00025504121732">
          5.2217685152e-05 4.7131474275e-05 5.0474824093e-05 2.8994238164e-05 6.382643187e-05 5.0023543736e-05
          4.1660714487e-05 7.4080271588e-05 5.136319669e-05 5.2749004681e-05 4.5811197197e-05 4.8643501941e-05
          3.017088784e-05 6.3553976361e-05 4.9765574659e-05 4.2214247514e-05 7.5598778494e-05 5.0249156629e-05
          2.9403707231e-05 6.2858627643e-05 5.0593265769e-05 5.3441530326e-05 4.5482880523e-05 5.0633483625e-05
          4.1833067371e-05 7.410816761e-05 4.8803423851e-05 5.2533727285e-05 4.7120778618e-05 4.9176775065e-05
          4.0991108108e-05 7.4869036325e-05 5.0358808949e-05 2.9766133594e-05 6.2221348344e-05 4.906911272e-05
          2.9390395866e-05 6.2912295107e-05 4.9461203162e-05 5.3284747992e-05 4.6007302444e-05 4.9602393119e-05
          4.2266277887e-05 7.5430245488e-05 4.8956342653e-05 2.9507247746e-05 6.3032028265e-05 5.1715600421e-05
          5.2692015743e-05 4.6339475375e-05 5.0432077842e-05 4.2039118853e-05 7.3812560004e-05 4.9746588047e-05
          5.340719872e-05 4.6839515562e-05 5.0050955906e-05 3.0248422263e-05 6.232393207e-05 5.0116956118e-05
          4.235994129e-05 7.3712071753e-05 5.053741188e-05 4.1980543756e-05 7.4680254329e-05 4.988722867e-05
          7.4799063441e-05 2.9844668461e-05 5.0785205531e-05 0.00010766382911 5.0818904128e-05 4.9623755331e-05
          0.00013827695511 6.1243670643e-05 5.0292175729e-05 0.0001015116577 7.5368385296e-05 4.9523088819e-05
          7.6382588304e-05 2.9090748285e-05 4.928166527e-05 0.00010833884153 5.1240735047e-05 5.0154922064e-05
          0.00013801711611 6.2206410803e-05 5.0761307648e-05 0.00010008611571 7.6084252214e-05 5.0592228945e-05
          0.00010727204062 5.1850638556e-05 5.0741691666e-05 7.5587980973e-05 2.7723095627e-05 4.9284266424e-05
          0.00013884584769 6.2236154918e-05 4.8445479479e-05 0.00010120513616 7.5969692261e-05 4.8812544264e-05
          0.00010033736908 7.5067524449e-05 5.1040959079e-05 7.5438249041e-05 2.8704323995e-05 4.9775193474e-05
          0.00013895268785 6.1806407757e-05 5.0503236707e-05 0.00010782808386 5.1639563026e-05 4.8923455324e-05
          0.00013926063548 6.1906583142e-05 4.9579961342e-05 0.00010722594743 5.2123479691e-05 4.9629168643e-05
          7.6411946793e-05 2.8977970942e-05 5.0559188821e-05 0.00010811596439 5.1484759751e-05 5.1506107411e-05
          7.6113487012e-05 2.7817486625e-05 5.0407845265e-05 0.00010108726565 7.4576251791e-05 5.0081307563e-05
          7.5830066635e-05 2.9706658097e-05 5.0244179874e-05 0.00010067706899 7.5492331234e-05 5.0236249081e-05
          0.00013826717623 6.2376428104e-05 4.9646594562e-05 0.00010139439109 7.616727089e-05 5.0747134082e-05
          0.00010009101243 7.6085241744e-05 4.8963760491e-05 0.00013822244364 6.1308353906e-05 4.9212623708e-05
          0.00010878554167 5.19571513e-05 5.0698519772e-05 0.00013860469335 6.1158782046e-05 5.1422397519e-05
          0.00010885245865 5.1177630667e-05 4.9023630709e-05 0.00022040095064 6.1129168898e-05 4.9065689382e-05
          0.00021771009779 7.8588796896e-05 5.1330960559e-05 0.00022127002012 6.0042857513e-05 4.9608424888e-05
          0.00021897352417 7.9001205449e-05 5.0527356507e-05 0.00021773713524 7.9313962488e-05 5.0456546887e-05
          0.00022139695648 6.0649279476e-05 5.0615028158e-05 0.00022042283672 6.1209822888e-05 5.040326505e-05
          0.00021874374943 7.7395918197e-05 4.9574889999e-05 0.00021812057821 7.9040430137e-05 4.8604273616e-05
          0.00022114746389 6.052423123e-05 4.8609726946e-05 0.00022102691582 5.9469544794e-05 5.0584218116e-05
          0.00021816730441 7.7904012869e-05 5.0591825129e-05 0.00022101623472 6.1360427935e-05 4.983947656e-05
          0.00021905700851 7.8848199337e-05 4.9333692004e-05 0.00022077566246 6.1165446823e-05 5.1444530982e-05
          0.00021809207101 7.8278324509e-05 4.9499005399e-05 0.00021822028793 7.9165445641e-05 4.9716392823e-05
          0.00024760427186 2.6769190299e-05 5.0616872613e-05 0.00024749166914 2.601462802e-05 4.9814967497e-05
          0.00024860244594 2.5918681786e-05 4.8747813707e-05 0.00024800683605 2.809254147e-05 4.9673144531e-05
          0.00024785127607 2.5964016459e-05 5.1012117183e-05 0.0002487534075 2.6014724426e-05 4.990990783e-05
          0.00024771440076 2.7045611205e-05 4.9460100854e-05
        </DataArray>
      </Points>
      <Cells>
        <DataArray type="Int64" Name="connectivity" format="ascii" RangeMin="0" RangeMax="76">
          0 1 2 3 4 5
          6 7 8 9 10 11
          12 13 14 15 16 17
          18 19 20 21 22 23
          24 25 26 27 28 29
          30 31 32 33 34 35
          36 37 38 39 40 41
          42 43 44 45 46 47
          48 49 50 51 52 53
          54 55 56 57 58 59
          60 61 62 63 64 65
          66 67 68 69 70 71
          72 73 74 75 76
        </DataArray>
        <DataArray type="Int64" Name="offsets" format="ascii" RangeMin="1" RangeMax="77">
          1 2 3 4 5 6
          7 8 9 10 11 12
          13 14 15 16 17 18
          19 20 21 22 23 24
          25 26 27 28 29 30
          31 32 33 34 35 36
          37 38 39 40 41 42
          43 44 45 46 47 48
          49 50 51 52 53 54
          55 56 57 58 59 60
          61 62 63 64 65 66
          67 68 69 70 71 72
          73 74 75 76 77
        </DataArray>
        <DataArray type="UInt8" Name="types" format="ascii" RangeMin="1" RangeMax="1">
          1 1 1 1 1 1
          1 1 1 1 1 1
          1 1 1 1 1 1
          1 1 1 1 1 1
          1 1 1 1 1 1
          1 1 1 1 1 1
          1 1 1 1 1 1
          1 1 1 1 1 1
          1 1 1 1 1 1
          1 1 1 1 1 1
          1 1 1 1 1 1
          1 1 1 1 1 1
          1 1 1 1 1
        </DataArray>
      </Cells>
    </Piece>
  </UnstructuredGrid>
</VTKFile>
