<?xml version="1.0"?>
<VTKFile type="UnstructuredGrid" version="0.1" byte_order="LittleEndian" header_type="UInt32" compressor="vtkZLibDataCompressor">
  <UnstructuredGrid>
    <Piece NumberOfPoints="1610" NumberOfCells="1610">
      <PointData>
        <DataArray type="Int32" Name="id" format="ascii" RangeMin="1" RangeMax="1610">
          8 6 5 11 12 13
          21 22 23 32 33 34
          44 45 46 47 48 49
          57 58 67 68 78 79
          80 81 82 83 94 95
          96 97 98 99 113 114
          115 116 117 118 138 139
          140 141 142 143 144 145
          160 161 162 163 164 165
          166 167 168 189 190 191
          192 193 194 195 196 229
          230 231 232 233 234 235
          236 237 238 239 240 241
          242 243 274 275 276 277
          278 279 280 281 282 283
          284 285 286 287 313 314
          315 316 317 318 319 320
          321 322 323 324 371 372
          373 374 375 376 377 378
          379 380 381 382 383 384
          385 386 447 448 449 450
          451 452 453 454 455 456
          457 458 459 460 461 462
          463 464 465 466 467 510
          511 512 513 514 515 516
          517 518 519 520 521 522
          523 524 525 526 527 528
          529 530 531 580 581 582
          583 584 585 586 587 588
          589 590 591 592 593 594
          595 596 597 598 599 600
          601 602 603 604 605 606
          607 608 609 610 679 680
          681 682 683 684 685 686
          687 688 689 690 691 692
          693 694 695 696 697 698
          699 700 701 702 703 704
          705 791 792 793 794 795
          796 797 798 799 800 801
          802 803 804 805 806 807
          808 809 810 895 896 897
          898 899 900 901 902 903
          904 905 906 907 908 909
          910 911 912 913 914 915
          916 1001 1002 1003 1004 1005
          1006 1007 1008 1009 1010 1011
          1012 1013 1014 1015 1016 1017
          1018 1019 1020 1021 1022 1023
          1024 1025 1026 1027 1028 1029
          1030 1031 1032 1033 1034 1035
          1036 1037 1038 1039 1040 1041
          1042 1043 1044 1045 1046 1047
          1048 1049 1143 1144 1145 1146
          1147 1148 1149 1150 1151 1152
          1153 1154 1155 1156 1157 1158
          1159 1160 1161 1162 1163 1164
          1165 1166 1167 1168 1169 1170
          1171 1172 1173 1174 1175 1176
          1177 1178 1179 1180 1181 1182
          1183 1289 1290 1291 1292 1293
          1294 1295 1296 1297 1298 1299
          1300 1301 1302 1303 1304 1305
          1306 1307 1308 1309 1310 1311
          1312 1313 1314 1315 1316 1317
          1318 1319 1320 1321 1322 1323
          1324 1325 1326 1327 1328 1329
          1330 1331 1332 1333 1334 1335
          1457 1458 1459 1460 1461 1462
          1463 1464 1465 1466 1467 1468
          1469 1470 1471 1472 1473 1474
          1475 1476 1477 1478 1479 1480
          1481 1482 1483 1484 1485 1486
          1487 1488 1489 1490 9 4
          3 7 14 15 16 17
          24 25 26 30 31 35
          36 37 41 50 51 52
          53 54 59 60 61 62
          63 69 70 71 72 84
          85 86 87 88 89 100
          101 102 103 104 105 106
          107 119 120 121 122 123
          124 125 126 127 128 129
          130 146 147 148 149 150
          151 169 170 171 172 173
          174 175 176 177 178 179
          197 198 199 200 201 202
          203 204 205 206 207 208
          209 210 211 212 213 214
          215 216 244 245 246 247
          248 249 250 251 252 253
          254 255 256 257 258 259
          260 261 288 289 290 291
          292 293 294 295 296 297
          298 299 300 301 325 326
          327 328 329 330 331 332
          333 334 335 336 337 338
          339 340 341 342 343 344
          345 346 347 387 388 389
          390 391 392 393 394 395
          396 397 398 399 400 401
          402 403 404 405 406 407
          408 409 410 411 412 413
          414 415 416 417 418 419
          420 421 422 423 468 469
          470 471 472 473 474 475
          476 477 478 479 480 481
          482 483 484 485 486 487
          488 489 490 491 492 493
          494 495 496 532 533 534
          535 536 537 538 539 540
          541 542 543 544 545 546
          547 548 549 550 551 552
          553 554 555 556 557 558
          559 611 612 613 614 615
          616 617 618 619 620 621
          622 623 624 625 626 627
          628 629 630 631 632 633
          634 635 636 637 638 639
          640 641 642 643 644 645
          706 707 708 709 710 711
          712 713 714 715 716 717
          718 719 720 721 722 723
          724 725 726 727 728 729
          730 731 732 733 734 735
          736 737 738 739 740 741
          742 743 744 745 746 747
          748 749 750 751 752 753
          754 811 812 813 814 815
          816 817 818 819 820 821
          822 823 824 825 826 827
          828 829 830 831 832 833
          834 835 836 837 838 839
          840 841 842 843 844 845
          846 847 848 849 850 851
          852 853 854 855 856 857
          858 917 918 919 920 921
          922 923 924 925 926 927
          928 929 930 931 932 933
          934 935 936 937 938 939
          940 941 942 943 944 945
          946 947 948 949 950 951
          952 953 954 955 956 957
          958 959 960 961 962 963
          964 965 966 967 968 969
          970 1050 1051 1052 1053 1054
          1055 1056 1057 1058 1059 1060
          1061 1062 1063 1064 1065 1066
          1067 1068 1069 1070 1071 1072
          1073 1074 1075 1076 1077 1078
          1079 1080 1081 1082 1083 1084
          1085 1086 1087 1088 1089 1090
          1091 1092 1093 1094 1095 1096
          1097 1098 1099 1100 1101 1102
          1103 1104 1184 1185 1186 1187
          1188 1189 1190 1191 1192 1193
          1194 1195 1196 1197 1198 1199
          1200 1201 1202 1203 1204 1205
          1206 1207 1208 1209 1210 1211
          1212 1213 1214 1215 1216 1217
          1218 1219 1220 1221 1222 1223
          1224 1225 1226 1227 1228 1229
          1230 1231 1232 1233 1234 1235
          1236 1237 1336 1337 1338 1339
          1340 1341 1342 1343 1344 1345
          1346 1347 1348 1349 1350 1351
          1352 1353 1354 1355 1356 1357
          1358 1359 1360 1361 1362 1363
          1364 1365 1366 1367 1368 1369
          1370 1371 1372 1373 1374 1375
          1376 1377 1378 1379 1380 1381
          1382 1383 1384 1385 1386 1387
          1388 1389 1390 1391 1392 1393
          1394 1395 1396 1397 1398 1399
          1400 1401 1402 1403 1404 1405
          1406 1407 1408 1491 1492 1493
          1494 1495 1496 1497 1498 1499
          1500 1501 1502 1503 1504 1505
          1506 1507 1508 1509 1510 1511
          1512 1513 1514 1515 1516 1517
          1518 1519 1520 1521 1522 1523
          1524 1525 1526 1527 1528 1529
          1530 1531 1532 1533 1534 1535
          1536 1537 1538 1539 1540 1541
          1542 1543 1544 1545 1546 1547
          1548 1549 1550 1551 1552 1553
          1554 1555 1556 1557 1558 1559
          1560 1561 1562 10 1 18
          19 27 28 38 39 42
          55 56 64 73 74 75
          76 77 90 108 109 110
          111 112 131 132 133 152
          153 154 155 156 157 180
          181 182 183 184 185 217
          218 219 220 221 222 223
          224 262 263 264 265 266
          267 268 302 303 304 305
          306 307 308 348 349 350
          351 352 353 354 355 356
          357 358 359 360 361 362
          363 424 425 426 427 428
          429 430 431 432 433 434
          435 436 437 497 498 499
          500 501 502 503 560 561
          562 563 564 565 566 567
          568 569 570 571 572 573
          574 646 647 648 649 650
          651 652 653 654 655 656
          657 658 659 660 661 662
          663 664 665 666 755 756
          757 758 759 760 761 762
          763 764 765 766 767 768
          769 770 771 772 773 774
          859 860 861 862 863 864
          865 866 867 868 869 870
          871 872 873 874 875 876
          877 878 879 880 881 971
          972 973 974 975 976 977
          978 979 980 981 982 983
          984 985 986 987 988 989
          990 991 992 1105 1106 1107
          1108 1109 1110 1111 1112 1113
          1114 1115 1116 1117 1118 1119
          1120 1121 1122 1123 1124 1125
          1126 1127 1128 1129 1238 1239
          1240 1241 1242 1243 1244 1245
          1246 1247 1248 1249 1250 1251
          1252 1253 1254 1255 1256 1257
          1258 1259 1260 1261 1262 1263
          1264 1265 1266 1267 1268 1269
          1270 1409 1410 1411 1412 1413
          1414 1415 1416 1417 1418 1419
          1420 1421 1422 1423 1424 1425
          1426 1427 1428 1429 1430 1431
          1432 1433 1434 1435 1436 1437
          1438 1439 1563 1564 1565 1566
          1567 1568 1569 1570 1571 1572
          1573 1574 1575 1576 1577 1578
          1579 1580 1581 1582 1583 1584
          1585 1586 1587 1588 1589 1590
          1591 1592 1593 1594 2 20
          29 40 43 65 66 91
          92 93 134 135 136 137
          158 159 186 187 188 225
          226 227 228 269 270 271
          272 273 309 310 311 312
          364 365 366 367 368 369
          370 438 439 440 441 442
          443 444 445 446 504 505
          506 507 508 509 575 576
          577 578 579 667 668 669
          670 671 672 673 674 675
          676 677 678 775 776 777
          778 779 780 781 782 783
          784 785 786 787 788 789
          790 882 883 884 885 886
          887 888 889 890 891 892
          893 894 993 994 995 996
          997 998 999 1000 1130 1131
          1132 1133 1134 1135 1136 1137
          1138 1139 1140 1141 1142 1271
          1272 1273 1274 1275 1276 1277
          1278 1279 1280 1281 1282 1283
          1284 1285 1286 1287 1288 1440
          1441 1442 1443 1444 1445 1446
          1447 1448 1449 1450 1451 1452
          1453 1454 1455 1456 1595 1596
          1597 1598 1599 1600 1601 1602
          1603 1604 1605 1606 1607 1608
          1609 1610
        </DataArray>
        <DataArray type="Int32" Name="type" format="ascii" RangeMin="1" RangeMax="1">
          1 1 1 1 1 1
          1 1 1 1 1 1
          1 1 1 1 1 1
          1 1 1 1 1 1
          1 1 1 1 1 1
          1 1 1 1 1 1
          1 1 1 1 1 1
          1 1 1 1 1 1
          1 1 1 1 1 1
          1 1 1 1 1 1
          1 1 1 1 1 1
          1 1 1 1 1 1
          1 1 1 1 1 1
          1 1 1 1 1 1
          1 1 1 1 1 1
          1 1 1 1 1 1
          1 1 1 1 1 1
          1 1 1 1 1 1
          1 1 1 1 1 1
          1 1 1 1 1 1
          1 1 1 1 1 1
          1 1 1 1 1 1
          1 1 1 1 1 1
          1 1 1 1 1 1
          1 1 1 1 1 1
          1 1 1 1 1 1
          1 1 1 1 1 1
          1 1 1 1 1 1
          1 1 1 1 1 1
          1 1 1 1 1 1
          1 1 1 1 1 1
          1 1 1 1 1 1
          1 1 1 1 1 1
          1 1 1 1 1 1
          1 1 1 1 1 1
          1 1 1 1 1 1
          1 1 1 1 1 1
          1 1 1 1 1 1
          1 1 1 1 1 1
          1 1 1 1 1 1
          1 1 1 1 1 1
          1 1 1 1 1 1
          1 1 1 1 1 1
          1 1 1 1 1 1
          1 1 1 1 1 1
          1 1 1 1 1 1
          1 1 1 1 1 1
          1 1 1 1 1 1
          1 1 1 1 1 1
          1 1 1 1 1 1
          1 1 1 1 1 1
          1 1 1 1 1 1
          1 1 1 1 1 1
          1 1 1 1 1 1
          1 1 1 1 1 1
          1 1 1 1 1 1
          1 1 1 1 1 1
          1 1 1 1 1 1
          1 1 1 1 1 1
          1 1 1 1 1 1
          1 1 1 1 1 1
          1 1 1 1 1 1
          1 1 1 1 1 1
          1 1 1 1 1 1
          1 1 1 1 1 1
          1 1 1 1 1 1
          1 1 1 1 1 1
          1 1 1 1 1 1
          1 1 1 1 1 1
          1 1 1 1 1 1
          1 1 1 1 1 1
          1 1 1 1 1 1
          1 1 1 1 1 1
          1 1 1 1 1 1
          1 1 1 1 1 1
          1 1 1 1 1 1
          1 1 1 1 1 1
          1 1 1 1 1 1
          1 1 1 1 1 1
          1 1 1 1 1 1
          1 1 1 1 1 1
          1 1 1 1 1 1
          1 1 1 1 1 1
          1 1 1 1 1 1
          1 1 1 1 1 1
          1 1 1 1 1 1
          1 1 1 1 1 1
          1 1 1 1 1 1
          1 1 1 1 1 1
          1 1 1 1 1 1
          1 1 1 1 1 1
          1 1 1 1 1 1
          1 1 1 1 1 1
          1 1 1 1 1 1
          1 1 1 1 1 1
          1 1 1 1 1 1
          1 1 1 1 1 1
          1 1 1 1 1 1
          1 1 1 1 1 1
          1 1 1 1 1 1
          1 1 1 1 1 1
          1 1 1 1 1 1
          1 1 1 1 1 1
          1 1 1 1 1 1
          1 1 1 1 1 1
          1 1 1 1 1 1
          1 1 1 1 1 1
          1 1 1 1 1 1
          1 1 1 1 1 1
          1 1 1 1 1 1
          1 1 1 1 1 1
          1 1 1 1 1 1
          1 1 1 1 1 1
          1 1 1 1 1 1
          1 1 1 1 1 1
          1 1 1 1 1 1
          1 1 1 1 1 1
          1 1 1 1 1 1
          1 1 1 1 1 1
          1 1 1 1 1 1
          1 1 1 1 1 1
          1 1 1 1 1 1
          1 1 1 1 1 1
          1 1 1 1 1 1
          1 1 1 1 1 1
          1 1 1 1 1 1
          1 1 1 1 1 1
          1 1 1 1 1 1
          1 1 1 1 1 1
          1 1 1 1 1 1
          1 1 1 1 1 1
          1 1 1 1 1 1
          1 1 1 1 1 1
          1 1 1 1 1 1
          1 1 1 1 1 1
          1 1 1 1 1 1
          1 1 1 1 1 1
          1 1 1 1 1 1
          1 1 1 1 1 1
          1 1 1 1 1 1
          1 1 1 1 1 1
          1 1 1 1 1 1
          1 1 1 1 1 1
          1 1 1 1 1 1
          1 1 1 1 1 1
          1 1 1 1 1 1
          1 1 1 1 1 1
          1 1 1 1 1 1
          1 1 1 1 1 1
          1 1 1 1 1 1
          1 1 1 1 1 1
          1 1 1 1 1 1
          1 1 1 1 1 1
          1 1 1 1 1 1
          1 1 1 1 1 1
          1 1 1 1 1 1
          1 1 1 1 1 1
          1 1 1 1 1 1
          1 1 1 1 1 1
          1 1 1 1 1 1
          1 1 1 1 1 1
          1 1 1 1 1 1
          1 1 1 1 1 1
          1 1 1 1 1 1
          1 1 1 1 1 1
          1 1 1 1 1 1
          1 1 1 1 1 1
          1 1 1 1 1 1
          1 1 1 1 1 1
          1 1 1 1 1 1
          1 1 1 1 1 1
          1 1 1 1 1 1
          1 1 1 1 1 1
          1 1 1 1 1 1
          1 1 1 1 1 1
          1 1 1 1 1 1
          1 1 1 1 1 1
          1 1 1 1 1 1
          1 1 1 1 1 1
          1 1 1 1 1 1
          1 1 1 1 1 1
          1 1 1 1 1 1
          1 1 1 1 1 1
          1 1 1 1 1 1
          1 1 1 1 1 1
          1 1 1 1 1 1
          1 1 1 1 1 1
          1 1 1 1 1 1
          1 1 1 1 1 1
          1 1 1 1 1 1
          1 1 1 1 1 1
          1 1 1 1 1 1
          1 1 1 1 1 1
          1 1 1 1 1 1
          1 1 1 1 1 1
          1 1 1 1 1 1
          1 1 1 1 1 1
          1 1 1 1 1 1
          1 1 1 1 1 1
          1 1 1 1 1 1
          1 1 1 1 1 1
          1 1 1 1 1 1
          1 1 1 1 1 1
          1 1 1 1 1 1
          1 1 1 1 1 1
          1 1 1 1 1 1
          1 1 1 1 1 1
          1 1 1 1 1 1
          1 1 1 1 1 1
          1 1 1 1 1 1
          1 1 1 1 1 1
          1 1 1 1 1 1
          1 1 1 1 1 1
          1 1 1 1 1 1
          1 1 1 1 1 1
          1 1 1 1 1 1
          1 1 1 1 1 1
          1 1 1 1 1 1
          1 1 1 1 1 1
          1 1 1 1 1 1
          1 1 1 1 1 1
          1 1 1 1 1 1
          1 1 1 1 1 1
          1 1 1 1 1 1
          1 1 1 1 1 1
          1 1 1 1 1 1
          1 1 1 1 1 1
          1 1 1 1 1 1
          1 1 1 1 1 1
          1 1 1 1 1 1
          1 1 1 1 1 1
          1 1 1 1 1 1
          1 1 1 1 1 1
          1 1 1 1 1 1
          1 1 1 1 1 1
          1 1 1 1 1 1
          1 1 1 1 1 1
          1 1 1 1 1 1
          1 1 1 1 1 1
          1 1 1 1 1 1
          1 1 1 1 1 1
          1 1 1 1 1 1
          1 1 1 1 1 1
          1 1 1 1 1 1
          1 1 1 1 1 1
          1 1 1 1 1 1
          1 1 1 1 1 1
          1 1 1 1 1 1
          1 1 1 1 1 1
          1 1 1 1 1 1
          1 1 1 1 1 1
          1 1 1 1 1 1
          1 1 1 1 1 1
          1 1 1 1 1 1
          1 1 1 1 1 1
          1 1 1 1 1 1
          1 1 1 1 1 1
          1 1 1 1 1 1
          1 1 1 1 1 1
          1 1 1 1 1 1
          1 1 1 1 1 1
          1 1 1 1 1 1
          1 1 1 1 1 1
          1 1 1 1 1 1
          1 1 1 1 1 1
          1 1 1 1 1 1
          1 1 1 1 1 1
          1 1 1 1 1 1
          1 1
        </DataArray>
        <DataArray type="Float64" Name="diameter" format="ascii" RangeMin="1.0071102632e-06" RangeMax="1.359931621e-06">
          1.2973301193e-06 1.1993377261e-06 1.237206425e-06 1.2740378343e-06 1.0838243159e-06 1.2319939877e-06
          1.0646632905e-06 1.3272730192e-06 1.1527108298e-06 1.3495289046e-06 1.2664041004e-06 1.2081852761e-06
          1.3307585175e-06 1.0901721273e-06 1.2097344349e-06 1.3234802848e-06 1.2984925617e-06 1.1762639341e-06
          1.2948294439e-06 1.3574534886e-06 1.149777304e-06 1.3480886931e-06 1.3091053697e-06 1.3466760354e-06
          1.2911066201e-06 1.2418673916e-06 1.2416400912e-06 1.1609365313e-06 1.2244668627e-06 1.1827097003e-06
          1.1662506139e-06 1.1790355964e-06 1.3522890003e-06 1.1045969072e-06 1.3560790888e-06 1.2544661347e-06
          1.3476662191e-06 1.1899609037e-06 1.1385119685e-06 1.2796394867e-06 1.2426728317e-06 1.1352375643e-06
          1.1747033935e-06 1.1394493405e-06 1.1214052794e-06 1.3500572129e-06 1.2379712774e-06 1.3074265146e-06
          1.1696756576e-06 1.2021569294e-06 1.1737906493e-06 1.2116538663e-06 1.0961669688e-06 1.3050996973e-06
          1.1173296635e-06 1.313084969e-06 1.3100071117e-06 1.3187275915e-06 1.0908160372e-06 1.0903630231e-06
          1.169828437e-06 1.1441689433e-06 1.1661881141e-06 1.2488524408e-06 1.1248648695e-06 1.2978869615e-06
          1.2602809572e-06 1.3082173347e-06 1.1531993343e-06 1.3388994999e-06 1.1028348481e-06 1.3251521918e-06
          1.1260018546e-06 1.2299748788e-06 1.1312298932e-06 1.0673740236e-06 1.2260811124e-06 1.1681258802e-06
          1.186319021e-06 1.1344517345e-06 1.2959436081e-06 1.2806673789e-06 1.1461479065e-06 1.3168623126e-06
          1.3589280553e-06 1.2621381723e-06 1.2405074154e-06 1.1114519569e-06 1.2133211774e-06 1.06726278e-06
          1.1129547789e-06 1.1504862187e-06 1.3025567194e-06 1.057407943e-06 1.3333081367e-06 1.1175248367e-06
          1.1297346739e-06 1.1489276959e-06 1.3113301145e-06 1.1790426324e-06 1.2097615378e-06 1.3533329562e-06
          1.2567740894e-06 1.2829720806e-06 1.060949059e-06 1.2444190574e-06 1.3569816318e-06 1.0541612919e-06
          1.2468692054e-06 1.1139862612e-06 1.249644106e-06 1.136162431e-06 1.1497207418e-06 1.1574162412e-06
          1.1421451992e-06 1.2089996514e-06 1.1116318249e-06 1.1220561733e-06 1.2855354101e-06 1.2545382783e-06
          1.1726635986e-06 1.1534061657e-06 1.1099733815e-06 1.1957408835e-06 1.2581951263e-06 1.2512557374e-06
          1.1980156352e-06 1.1881318898e-06 1.3235141318e-06 1.0711903082e-06 1.2247954894e-06 1.1808702703e-06
          1.1869228123e-06 1.214529558e-06 1.1504972527e-06 1.1077717049e-06 1.0079736283e-06 1.1820497372e-06
          1.1591064483e-06 1.1512489842e-06 1.1504427582e-06 1.2603151861e-06 1.1391072798e-06 1.3390154003e-06
          1.1940584384e-06 1.3240292117e-06 1.3226338822e-06 1.3412794079e-06 1.2843650558e-06 1.1800316573e-06
          1.349404938e-06 1.3420342922e-06 1.1367320097e-06 1.0739811338e-06 1.138230654e-06 1.3164896048e-06
          1.1494542955e-06 1.345261139e-06 1.1825970551e-06 1.2353252679e-06 1.3456832778e-06 1.1162989434e-06
          1.1482766265e-06 1.1161758619e-06 1.3190908283e-06 1.1972617521e-06 1.2685176283e-06 1.2237327913e-06
          1.2415362644e-06 1.34486382e-06 1.1383275997e-06 1.2993786094e-06 1.1010427586e-06 1.0842904237e-06
          1.1714516411e-06 1.2588234556e-06 1.2206261799e-06 1.1682024077e-06 1.2151499491e-06 1.0814251229e-06
          1.0435163423e-06 1.359931621e-06 1.3163244774e-06 1.2817504561e-06 1.2921182422e-06 1.1480275542e-06
          1.1338632026e-06 1.1692763716e-06 1.3219937142e-06 1.1429240122e-06 1.0863349235e-06 1.2428517736e-06
          1.2875926453e-06 1.1196961624e-06 1.3040486369e-06 1.1944927541e-06 1.133421376e-06 1.0641200577e-06
          1.1305238579e-06 1.1983149605e-06 1.0659474858e-06 1.0734936934e-06 1.2083894388e-06 1.2325748631e-06
          1.1765691664e-06 1.3224399975e-06 1.1863109081e-06 1.1794404652e-06 1.1618941849e-06 1.3352543532e-06
          1.087693993e-06 1.3386016293e-06 1.1563098057e-06 1.2854158655e-06 1.0751913597e-06 1.1828358278e-06
          1.0336555052e-06 1.1557770752e-06 1.2932086407e-06 1.1179304153e-06 1.0420344484e-06 1.3572608841e-06
          1.2098370906e-06 1.3537524013e-06 1.3217117145e-06 1.1372794798e-06 1.3074746982e-06 1.3164068768e-06
          1.1137688553e-06 1.2371664071e-06 1.1079792157e-06 1.0717964923e-06 1.2890701632e-06 1.1096156863e-06
          1.2229900135e-06 1.3419144007e-06 1.1370284296e-06 1.188482093e-06 1.2404140129e-06 1.1601744961e-06
          1.2866505563e-06 1.2101582926e-06 1.2883483234e-06 1.1223097207e-06 1.2109666874e-06 1.2163842121e-06
          1.2685456063e-06 1.0551811808e-06 1.1976299495e-06 1.2501230184e-06 1.1965399585e-06 1.2702356057e-06
          1.311890987e-06 1.1366860584e-06 1.1957217522e-06 1.2364560268e-06 1.1421395571e-06 1.3378142495e-06
          1.2771623686e-06 1.3504797896e-06 1.2443660968e-06 1.0454961588e-06 1.2807681348e-06 1.1095490577e-06
          1.0741746717e-06 1.2900972739e-06 1.1460638602e-06 1.0835944846e-06 1.2347240423e-06 1.2102234343e-06
          1.1768133192e-06 1.1909488054e-06 1.1214344191e-06 1.2158453759e-06 1.2184867459e-06 1.2583244059e-06
          1.1202215741e-06 1.2278565054e-06 1.1924468377e-06 1.3062222586e-06 1.2476245179e-06 1.0887491208e-06
          1.2116335029e-06 1.2310563798e-06 1.2855884423e-06 1.1822745265e-06 1.2639344819e-06 1.2267046523e-06
          1.251970143e-06 1.3165009041e-06 1.2534045385e-06 1.2079243017e-06 1.2513539066e-06 1.2544445911e-06
          1.3511158121e-06 1.2309503992e-06 1.2701865122e-06 1.1814380107e-06 1.2256711788e-06 1.0633713847e-06
          1.1229414904e-06 1.1833508137e-06 1.2649514696e-06 1.1553449734e-06 1.2193301074e-06 1.3078552123e-06
          1.2679286846e-06 1.2797570549e-06 1.1942714829e-06 1.2594503571e-06 1.3560818915e-06 1.2488249931e-06
          1.204683878e-06 1.1928964713e-06 1.1776888119e-06 1.1358792707e-06 1.2727216827e-06 1.265602e-06
          1.1763241783e-06 1.1235852719e-06 1.2062516762e-06 1.1653074584e-06 1.2432197092e-06 1.117949921e-06
          1.1589135528e-06 1.1541435261e-06 1.1843116869e-06 1.2768929393e-06 1.1181597529e-06 1.1602673041e-06
          1.1994688987e-06 1.1829631547e-06 1.1644640831e-06 1.2195570577e-06 1.1441593503e-06 1.1376835492e-06
          1.265842183e-06 1.1290337946e-06 1.26249324e-06 1.1790652909e-06 1.087153447e-06 1.1460531666e-06
          1.2750902292e-06 1.1634303257e-06 1.2099701935e-06 1.2309061089e-06 1.1272675893e-06 1.238218383e-06
          1.2411437564e-06 1.2877070303e-06 1.3131076446e-06 1.2269648954e-06 1.1900461682e-06 1.1777698798e-06
          1.2049710489e-06 1.1792249108e-06 1.1184399479e-06 1.1470135766e-06 1.1837727893e-06 1.1288473556e-06
          1.1869766939e-06 1.0594343513e-06 1.0898889266e-06 1.1091498696e-06 1.1486435625e-06 1.1522615357e-06
          1.0931628227e-06 1.1709256135e-06 1.087213701e-06 1.1406621168e-06 1.1816452175e-06 1.1100714911e-06
          1.1681804738e-06 1.0903069365e-06 1.1825466504e-06 1.0935740983e-06 1.1192709527e-06 1.0738622041e-06
          1.0814290341e-06 1.0594483064e-06 1.1137245133e-06 1.0584735861e-06 1.1096512158e-06 1.1352994613e-06
          1.0919077892e-06 1.0897153178e-06 1.1278547722e-06 1.2247710904e-06 1.1722564623e-06 1.1530929587e-06
          1.0830812574e-06 1.1868687477e-06 1.0590877714e-06 1.1201375569e-06 1.2283081227e-06 1.1842136087e-06
          1.1654467297e-06 1.2209217051e-06 1.2306665146e-06 1.1168495233e-06 1.0557773051e-06 1.1823869675e-06
          1.1747384187e-06 1.0258069066e-06 1.0571181447e-06 1.0889761469e-06 1.1244564756e-06 1.1162109229e-06
          1.1736020884e-06 1.0702408195e-06 1.1872800755e-06 1.0699858701e-06 1.0950551812e-06 1.0713552947e-06
          1.1467278517e-06 1.0635865402e-06 1.1218175079e-06 1.1507190959e-06 1.0193795852e-06 1.0565140748e-06
          1.1039239883e-06 1.0849186253e-06 1.1079512813e-06 1.1220377941e-06 1.1309748792e-06 1.0525167549e-06
          1.0773962902e-06 1.1665955847e-06 1.1762436497e-06 1.1291795482e-06 1.0894518025e-06 1.1295864507e-06
          1.1296780918e-06 1.1671368232e-06 1.1211291343e-06 1.1305494447e-06 1.1574441777e-06 1.1698084851e-06
          1.1054526861e-06 1.1444777581e-06 1.1585603468e-06 1.3565745882e-06 1.1536273228e-06 1.0447524742e-06
          1.2589545329e-06 1.2080526111e-06 1.1009262523e-06 1.1064720801e-06 1.2801800982e-06 1.1933636445e-06
          1.1950710673e-06 1.1385404686e-06 1.2459855285e-06 1.2658703961e-06 1.0627490287e-06 1.327806704e-06
          1.0965322633e-06 1.2056688498e-06 1.2605166966e-06 1.0377921141e-06 1.2429034461e-06 1.3009106229e-06
          1.3283349158e-06 1.2779416668e-06 1.1829592619e-06 1.1510223008e-06 1.2531117804e-06 1.1217582527e-06
          1.2897747052e-06 1.0504495422e-06 1.0709591044e-06 1.2467864685e-06 1.3321558717e-06 1.1137909249e-06
          1.0870176998e-06 1.1632657461e-06 1.2653800826e-06 1.2224274635e-06 1.2420103686e-06 1.2806000198e-06
          1.3484635428e-06 1.1623015627e-06 1.1252886163e-06 1.2661656556e-06 1.091462328e-06 1.0946848532e-06
          1.0369181219e-06 1.209634505e-06 1.2853188132e-06 1.2213343672e-06 1.225900232e-06 1.1076186973e-06
          1.2955649995e-06 1.2667082138e-06 1.1923741343e-06 1.2992342853e-06 1.2304849571e-06 1.1063024265e-06
          1.1424878167e-06 1.2732758054e-06 1.1803591114e-06 1.2904278749e-06 1.2995764958e-06 1.103055339e-06
          1.3267653772e-06 1.2570665886e-06 1.2561749437e-06 1.0862445488e-06 1.3479639331e-06 1.3463027239e-06
          1.2688555926e-06 1.2851079963e-06 1.180454855e-06 1.0821532752e-06 1.1376703257e-06 1.3083500724e-06
          1.2236151418e-06 1.1204317331e-06 1.2343626398e-06 1.3294944243e-06 1.2704465592e-06 1.2408232107e-06
          1.1675593629e-06 1.3255569295e-06 1.3526077386e-06 1.2033903338e-06 1.050481463e-06 1.2921660215e-06
          1.3014261796e-06 1.1664963993e-06 1.2170827442e-06 1.2420957214e-06 1.0991251687e-06 1.0935338128e-06
          1.0938177947e-06 1.3168724759e-06 1.1773068623e-06 1.1771858103e-06 1.2148748873e-06 1.1152754308e-06
          1.2696439566e-06 1.1502559334e-06 1.292980959e-06 1.0561638907e-06 1.0662141505e-06 1.2860100443e-06
          1.2964663237e-06 1.1152607576e-06 1.3098441228e-06 1.0819656269e-06 1.0654739079e-06 1.3353337752e-06
          1.201054001e-06 1.3112610622e-06 1.1223074233e-06 1.309741697e-06 1.1982816703e-06 1.2781891993e-06
          1.2241765653e-06 1.2051323442e-06 1.3555864595e-06 1.0989393545e-06 1.3214993978e-06 1.3455992321e-06
          1.2346605274e-06 1.1519251327e-06 1.2680792587e-06 1.2239006266e-06 1.1376265064e-06 1.3172840533e-06
          1.2145380632e-06 1.2396793538e-06 1.2172681047e-06 1.3246203816e-06 1.3007623556e-06 1.2355895416e-06
          1.0482577311e-06 1.1955995951e-06 1.247195161e-06 1.2756788891e-06 1.2123934706e-06 1.2399946453e-06
          1.2732915546e-06 1.1551803189e-06 1.1015406677e-06 1.3181707124e-06 1.1317298616e-06 1.2740247381e-06
          1.2418881919e-06 1.0846699993e-06 1.196815638e-06 1.0283302636e-06 1.0498832031e-06 1.3508173681e-06
          1.1203535413e-06 1.2234438649e-06 1.1172421092e-06 1.2408438198e-06 1.1256085941e-06 1.0784883003e-06
          1.2648933658e-06 1.093182431e-06 1.3143961419e-06 1.3456219058e-06 1.2159765422e-06 1.1366023756e-06
          1.2487377147e-06 1.2466381308e-06 1.2743120909e-06 1.2101392708e-06 1.1812793837e-06 1.3345652716e-06
          1.1546787689e-06 1.0457489772e-06 1.1256609167e-06 1.3108997782e-06 1.3152372994e-06 1.3287913632e-06
          1.070538202e-06 1.3215541468e-06 1.3582600667e-06 1.2312702958e-06 1.1902006845e-06 1.3564608592e-06
          1.1977365864e-06 1.1648132551e-06 1.2561650776e-06 1.0886047829e-06 1.2772643166e-06 1.1633902614e-06
          1.201415184e-06 1.2472699619e-06 1.1907113853e-06 1.1716000951e-06 1.1485318919e-06 1.1702717744e-06
          1.0273907517e-06 1.2338871647e-06 1.0897728285e-06 1.2603954045e-06 1.2172921845e-06 1.1512409924e-06
          1.0809717368e-06 1.2410433249e-06 1.2617474763e-06 1.2925201503e-06 1.261241024e-06 1.2718686728e-06
          1.1928219065e-06 1.26767384e-06 1.1870175273e-06 1.0513158023e-06 1.1672620928e-06 1.1876123151e-06
          1.2416879447e-06 1.0445060216e-06 1.3584099242e-06 1.2002632238e-06 1.2333983968e-06 1.2451785631e-06
          1.2735992118e-06 1.3557890807e-06 1.1242041824e-06 1.2368361067e-06 1.2681862027e-06 1.1131919684e-06
          1.1965915056e-06 1.1944542343e-06 1.2938226444e-06 1.2241703677e-06 1.0912324372e-06 1.3139582691e-06
          1.1280929884e-06 1.1958407746e-06 1.3598059849e-06 1.1221461715e-06 1.3168198161e-06 1.1633926739e-06
          1.3446172574e-06 1.131250486e-06 1.167910728e-06 1.0689020039e-06 1.3472756679e-06 1.1434021817e-06
          1.2515379502e-06 1.3082517217e-06 1.2000389407e-06 1.1063700692e-06 1.1546503397e-06 1.1009788729e-06
          1.1264769295e-06 1.086232661e-06 1.142723793e-06 1.1962189223e-06 1.2736417496e-06 1.2803523071e-06
          1.1561502591e-06 1.2193043745e-06 1.2102392155e-06 1.0724686883e-06 1.079942881e-06 1.2245616317e-06
          1.1753584483e-06 1.3415393369e-06 1.1015699714e-06 1.3520680095e-06 1.1808467282e-06 1.1215149546e-06
          1.3553689964e-06 1.1629065761e-06 1.2707012746e-06 1.1041954083e-06 1.2665056137e-06 1.2115192949e-06
          1.1493863859e-06 1.1642410445e-06 1.2235808078e-06 1.2300400683e-06 1.2720591578e-06 1.1595304125e-06
          1.1331393226e-06 1.3545952475e-06 1.1529460607e-06 1.1586761984e-06 1.196658818e-06 1.2699076788e-06
          1.1871184797e-06 1.1194593471e-06 1.1422654853e-06 1.0679537763e-06 1.1390044186e-06 1.0954325542e-06
          1.1408635045e-06 1.2994199572e-06 1.0587278943e-06 1.171110308e-06 1.1840390104e-06 1.0808645064e-06
          1.0812182945e-06 1.1589790855e-06 1.2553107258e-06 1.1329651031e-06 1.1354175102e-06 1.1273729923e-06