<?xml version="1.0"?>
<VTKFile type="UnstructuredGrid" version="0.1" byte_order="LittleEndian" header_type="UInt32" compressor="vtkZLibDataCompressor">
  <UnstructuredGrid>
    <Piece NumberOfPoints="1953" NumberOfCells="1953">
      <PointData>
        <DataArray type="Int32" Name="id" format="ascii" RangeMin="1" RangeMax="1953">
          8 6 5 11 12 13
          21 22 23 32 33 34
          44 45 46 47 48 49
          57 58 67 68 78 79
          80 81 82 83 94 95
          96 97 98 99 113 114
          115 116 117 118 138 139
          140 141 142 143 144 145
          160 161 162 163 164 165
          166 167 168 189 190 191
          192 193 194 195 196 229
          230 231 232 233 234 235
          236 237 238 239 240 241
          242 243 274 275 276 277
          278 279 280 281 282 283
          284 285 286 287 313 314
          315 316 317 318 319 320
          321 322 323 324 371 372
          373 374 375 376 377 378
          379 380 381 382 383 384
          385 386 447 448 449 450
          451 452 453 454 455 456
          457 458 459 460 461 462
          463 464 465 466 467 510
          511 512 513 514 515 516
          517 518 519 520 521 522
          523 524 525 526 527 528
          529 530 531 580 581 582
          583 584 585 586 587 588
          589 590 591 592 593 594
          595 596 597 598 599 600
          601 602 603 604 605 606
          607 608 609 610 679 680
          681 682 683 684 685 686
          687 688 689 690 691 692
          693 694 695 696 697 698
          699 700 701 702 703 704
          705 791 792 793 794 795
          796 797 798 799 800 801
          802 803 804 805 806 807
          808 809 810 895 896 897
          898 899 900 901 902 903
          904 905 906 907 908 909
          910 911 912 913 914 915
          916 1001 1002 1003 1004 1005
          1006 1007 1008 1009 1010 1011
          1012 1013 1014 1015 1016 1017
          1018 1019 1020 1021 1022 1023
          1024 1025 1026 1027 1028 1029
          1030 1031 1032 1033 1034 1035
          1036 1037 1038 1039 1040 1041
          1042 1043 1044 1045 1046 1047
          1048 1049 1143 1144 1145 1146
          1147 1148 1149 1150 1151 1152
          1153 1154 1155 1156 1157 1158
          1159 1160 1161 1162 1163 1164
          1165 1166 1167 1168 1169 1170
          1171 1172 1173 1174 1175 1176
          1177 1178 1179 1180 1181 1182
          1183 1289 1290 1291 1292 1293
          1294 1295 1296 1297 1298 1299
          1300 1301 1302 1303 1304 1305
          1306 1307 1308 1309 1310 1311
          1312 1313 1314 1315 1316 1317
          1318 1319 1320 1321 1322 1323
          1324 1325 1326 1327 1328 1329
          1330 1331 1332 1333 1334 1335
          1457 1458 1459 1460 1461 1462
          1463 1464 1465 1466 1467 1468
          1469 1470 1471 1472 1473 1474
          1475 1476 1477 1478 1479 1480
          1481 1482 1483 1484 1485 1486
          1487 1488 1489 1490 1611 1612
          1613 1614 1615 1616 1617 1618
          1619 1620 1621 1622 1623 1624
          1625 1626 1627 1628 1629 1630
          1631 1632 1633 1634 1635 1636
          1637 1638 1639 1640 1641 1642
          1643 1644 1645 1646 1647 1648
          1649 1650 1651 1652 1653 1654
          1655 1656 1657 1658 1659 1782
          1783 1784 1785 1786 1787 1788
          1789 1790 1791 1792 1793 1794
          1795 1796 1797 1798 1799 1800
          1801 1802 1803 1804 1805 1806
          1807 1808 1809 1810 1811 1812
          1813 1814 1815 1816 1817 1818
          1819 1820 1821 1822 1823 1824
          1825 1826 1827 1828 1829 1830
          1831 9 4 3 7 14
          15 16 17 24 25 26
          30 31 35 36 37 41
          50 51 52 53 54 59
          60 61 62 63 69 70
          71 72 84 85 86 87
          88 89 100 101 102 103
          104 105 106 107 119 120
          121 122 123 124 125 126
          127 128 129 130 146 147
          148 149 150 151 169 170
          171 172 173 174 175 176
          177 178 179 197 198 199
          200 201 202 203 204 205
          206 207 208 209 210 211
          212 213 214 215 216 244
          245 246 247 248 249 250
          251 252 253 254 255 256
          257 258 259 260 261 288
          289 290 291 292 293 294
          295 296 297 298 299 300
          301 325 326 327 328 329
          330 331 332 333 334 335
          336 337 338 339 340 341
          342 343 344 345 346 347
          387 388 389 390 391 392
          393 394 395 396 397 398
          399 400 401 402 403 404
          405 406 407 408 409 410
          411 412 413 414 415 416
          417 418 419 420 421 422
          423 468 469 470 471 472
          473 474 475 476 477 478
          479 480 481 482 483 484
          485 486 487 488 489 490
          491 492 493 494 495 496
          532 533 534 535 536 537
          538 539 540 541 542 543
          544 545 546 547 548 549
          550 551 552 553 554 555
          556 557 558 559 611 612
          613 614 615 616 617 618
          619 620 621 622 623 624
          625 626 627 628 629 630
          631 632 633 634 635 636
          637 638 639 640 641 642
          643 644 645 706 707 708
          709 710 711 712 713 714
          715 716 717 718 719 720
          721 722 723 724 725 726
          727 728 729 730 731 732
          733 734 735 736 737 738
          739 740 741 742 743 744
          745 746 747 748 749 750
          751 752 753 754 811 812
          813 814 815 816 817 818
          819 820 821 822 823 824
          825 826 827 828 829 830
          831 832 833 834 835 836
          837 838 839 840 841 842
          843 844 845 846 847 848
          849 850 851 852 853 854
          855 856 857 858 917 918
          919 920 921 922 923 924
          925 926 927 928 929 930
          931 932 933 934 935 936
          937 938 939 940 941 942
          943 944 945 946 947 948
          949 950 951 952 953 954
          955 956 957 958 959 960
          961 962 963 964 965 966
          967 968 969 970 1050 1051
          1052 1053 1054 1055 1056 1057
          1058 1059 1060 1061 1062 1063
          1064 1065 1066 1067 1068 1069
          1070 1071 1072 1073 1074 1075
          1076 1077 1078 1079 1080 1081
          1082 1083 1084 1085 1086 1087
          1088 1089 1090 1091 1092 1093
          1094 1095 1096 1097 1098 1099
          1100 1101 1102 1103 1104 1184
          1185 1186 1187 1188 1189 1190
          1191 1192 1193 1194 1195 1196
          1197 1198 1199 1200 1201 1202
          1203 1204 1205 1206 1207 1208
          1209 1210 1211 1212 1213 1214
          1215 1216 1217 1218 1219 1220
          1221 1222 1223 1224 1225 1226
          1227 1228 1229 1230 1231 1232
          1233 1234 1235 1236 1237 1336
          1337 1338 1339 1340 1341 1342
          1343 1344 1345 1346 1347 1348
          1349 1350 1351 1352 1353 1354
          1355 1356 1357 1358 1359 1360
          1361 1362 1363 1364 1365 1366
          1367 1368 1369 1370 1371 1372
          1373 1374 1375 1376 1377 1378
          1379 1380 1381 1382 1383 1384
          1385 1386 1387 1388 1389 1390
          1391 1392 1393 1394 1395 1396
          1397 1398 1399 1400 1401 1402
          1403 1404 1405 1406 1407 1408
          1491 1492 1493 1494 1495 1496
          1497 1498 1499 1500 1501 1502
          1503 1504 1505 1506 1507 1508
          1509 1510 1511 1512 1513 1514
          1515 1516 1517 1518 1519 1520
          1521 1522 1523 1524 1525 1526
          1527 1528 1529 1530 1531 1532
          1533 1534 1535 1536 1537 1538
          1539 1540 1541 1542 1543 1544
          1545 1546 1547 1548 1549 1550
          1551 1552 1553 1554 1555 1556
          1557 1558 1559 1560 1561 1562
          1660 1661 1662 1663 1664 1665
          1666 1667 1668 1669 1670 1671
          1672 1673 1674 1675 1676 1677
          1678 1679 1680 1681 1682 1683
          1684 1685 1686 1687 1688 1689
          1690 1691 1692 1693 1694 1695
          1696 1697 1698 1699 1700 1701
          1702 1703 1704 1705 1706 1707
          1708 1709 1710 1711 1712 1713
          1714 1715 1716 1717 1718 1719
          1720 1721 1722 1723 1724 1725
          1726 1727 1728 1729 1832 1833
          1834 1835 1836 1837 1838 1839
          1840 1841 1842 1843 1844 1845
          1846 1847 1848 1849 1850 1851
          1852 1853 1854 1855 1856 1857
          1858 1859 1860 1861 1862 1863
          1864 1865 1866 1867 1868 1869
          1870 1871 1872 1873 1874 1875
          1876 1877 1878 1879 1880 1881
          1882 1883 1884 1885 1886 1887
          1888 1889 1890 1891 1892 1893
          1894 1895 1896 1897 1898 1899
          1900 10 1 18 19 27
          28 38 39 42 55 56
          64 73 74 75 76 77
          90 108 109 110 111 112
          131 132 133 152 153 154
          155 156 157 180 181 182
          183 184 185 217 218 219
          220 221 222 223 224 262
          263 264 265 266 267 268
          302 303 304 305 306 307
          308 348 349 350 351 352
          353 354 355 356 357 358
          359 360 361 362 363 424
          425 426 427 428 429 430
          431 432 433 434 435 436
          437 497 498 499 500 501
          502 503 560 561 562 563
          564 565 566 567 568 569
          570 571 572 573 574 646
          647 648 649 650 651 652
          653 654 655 656 657 658
          659 660 661 662 663 664
          665 666 755 756 757 758
          759 760 761 762 763 764
          765 766 767 768 769 770
          771 772 773 774 859 860
          861 862 863 864 865 866
          867 868 869 870 871 872
          873 874 875 876 877 878
          879 880 881 971 972 973
          974 975 976 977 978 979
          980 981 982 983 984 985
          986 987 988 989 990 991
          992 1105 1106 1107 1108 1109
          1110 1111 1112 1113 1114 1115
          1116 1117 1118 1119 1120 1121
          1122 1123 1124 1125 1126 1127
          1128 1129 1238 1239 1240 1241
          1242 1243 1244 1245 1246 1247
          1248 1249 1250 1251 1252 1253
          1254 1255 1256 1257 1258 1259
          1260 1261 1262 1263 1264 1265
          1266 1267 1268 1269 1270 1409
          1410 1411 1412 1413 1414 1415
          1416 1417 1418 1419 1420 1421
          1422 1423 1424 1425 1426 1427
          1428 1429 1430 1431 1432 1433
          1434 1435 1436 1437 1438 1439
          1563 1564 1565 1566 1567 1568
          1569 1570 1571 1572 1573 1574
          1575 1576 1577 1578 1579 1580
          1581 1582 1583 1584 1585 1586
          1587 1588 1589 1590 1591 1592
          1593 1594 1730 1731 1732 1733
          1734 1735 1736 1737 1738 1739
          1740 1741 1742 1743 1744 1745
          1746 1747 1748 1749 1750 1751
          1752 1753 1754 1755 1756 1757
          1758 1759 1760 1761 1762 1901
          1902 1903 1904 1905 1906 1907
          1908 1909 1910 1911 1912 1913
          1914 1915 1916 1917 1918 1919
          1920 1921 1922 1923 1924 1925
          1926 1927 1928 1929 1930 2
          20 29 40 43 65 66
          91 92 93 134 135 136
          137 158 159 186 187 188
          225 226 227 228 269 270
          271 272 273 309 310 311
          312 364 365 366 367 368
          369 370 438 439 440 441
          442 443 444 445 446 504
          505 506 507 508 509 575
          576 577 578 579 667 668
          669 670 671 672 673 674
          675 676 677 678 775 776
          777 778 779 780 781 782
          783 784 785 786 787 788
          789 790 882 883 884 885
          886 887 888 889 890 891
          892 893 894 993 994 995
          996 997 998 999 1000 1130
          1131 1132 1133 1134 1135 1136
          1137 1138 1139 1140 1141 1142
          1271 1272 1273 1274 1275 1276
          1277 1278 1279 1280 1281 1282
          1283 1284 1285 1286 1287 1288
          1440 1441 1442 1443 1444 1445
          1446 1447 1448 1449 1450 1451
          1452 1453 1454 1455 1456 1595
          1596 1597 1598 1599 1600 1601
          1602 1603 1604 1605 1606 1607
          1608 1609 1610 1763 1764 1765
          1766 1767 1768 1769 1770 1771
          1772 1773 1774 1775 1776 1777
          1778 1779 1780 1781 1931 1932
          1933 1934 1935 1936 1937 1938
          1939 1940 1941 1942 1943 1944
          1945 1946 1947 1948 1949 1950
          1951 1952 1953
        </DataArray>
        <DataArray type="Int32" Name="type" format="ascii" RangeMin="1" RangeMax="1">
          1 1 1 1 1 1
          1 1 1 1 1 1
          1 1 1 1 1 1
          1 1 1 1 1 1
          1 1 1 1 1 1
          1 1 1 1 1 1
          1 1 1 1 1 1
          1 1 1 1 1 1
          1 1 1 1 1 1
          1 1 1 1 1 1
          1 1 1 1 1 1
          1 1 1 1 1 1
          1 1 1 1 1 1
          1 1 1 1 1 1
          1 1 1 1 1 1
          1 1 1 1 1 1
          1 1 1 1 1 1
          1 1 1 1 1 1
          1 1 1 1 1 1
          1 1 1 1 1 1
          1 1 1 1 1 1
          1 1 1 1 1 1
          1 1 1 1 1 1
          1 1 1 1 1 1
          1 1 1 1 1 1
          1 1 1 1 1 1
          1 1 1 1 1 1
          1 1 1 1 1 1
          1 1 1 1 1 1
          1 1 1 1 1 1
          1 1 1 1 1 1
          1 1 1 1 1 1
          1 1 1 1 1 1
          1 1 1 1 1 1
          1 1 1 1 1 1
          1 1 1 1 1 1
          1 1 1 1 1 1
          1 1 1 1 1 1
          1 1 1 1 1 1
          1 1 1 1 1 1
          1 1 1 1 1 1
          1 1 1 1 1 1
          1 1 1 1 1 1
          1 1 1 1 1 1
          1 1 1 1 1 1
          1 1 1 1 1 1
          1 1 1 1 1 1
          1 1 1 1 1 1
          1 1 1 1 1 1
          1 1 1 1 1 1
          1 1 1 1 1 1
          1 1 1 1 1 1
          1 1 1 1 1 1
          1 1 1 1 1 1
          1 1 1 1 1 1
          1 1 1 1 1 1
          1 1 1 1 1 1
          1 1 1 1 1 1
          1 1 1 1 1 1
          1 1 1 1 1 1
          1 1 1 1 1 1
          1 1 1 1 1 1
          1 1 1 1 1 1
          1 1 1 1 1 1
          1 1 1 1 1 1
          1 1 1 1 1 1
          1 1 1 1 1 1
          1 1 1 1 1 1
          1 1 1 1 1 1
          1 1 1 1 1 1
          1 1 1 1 1 1
          1 1 1 1 1 1
          1 1 1 1 1 1
          1 1 1 1 1 1
          1 1 1 1 1 1
          1 1 1 1 1 1
          1 1 1 1 1 1
          1 1 1 1 1 1
          1 1 1 1 1 1
          1 1 1 1 1 1
          1 1 1 1 1 1
          1 1 1 1 1 1
          1 1 1 1 1 1
          1 1 1 1 1 1
          1 1 1 1 1 1
          1 1 1 1 1 1
          1 1 1 1 1 1
          1 1 1 1 1 1
          1 1 1 1 1 1
          1 1 1 1 1 1
          1 1 1 1 1 1
          1 1 1 1 1 1
          1 1 1 1 1 1
          1 1 1 1 1 1
          1 1 1 1 1 1
          1 1 1 1 1 1
          1 1 1 1 1 1
          1 1 1 1 1 1
          1 1 1 1 1 1
          1 1 1 1 1 1
          1 1 1 1 1 1
          1 1 1 1 1 1
          1 1 1 1 1 1
          1 1 1 1 1 1
          1 1 1 1 1 1
          1 1 1 1 1 1
          1 1 1 1 1 1
          1 1 1 1 1 1
          1 1 1 1 1 1
          1 1 1 1 1 1
          1 1 1 1 1 1
          1 1 1 1 1 1
          1 1 1 1 1 1
          1 1 1 1 1 1
          1 1 1 1 1 1
          1 1 1 1 1 1
          1 1 1 1 1 1
          1 1 1 1 1 1
          1 1 1 1 1 1
          1 1 1 1 1 1
          1 1 1 1 1 1
          1 1 1 1 1 1
          1 1 1 1 1 1
          1 1 1 1 1 1
          1 1 1 1 1 1
          1 1 1 1 1 1
          1 1 1 1 1 1
          1 1 1 1 1 1
          1 1 1 1 1 1
          1 1 1 1 1 1
          1 1 1 1 1 1
          1 1 1 1 1 1
          1 1 1 1 1 1
          1 1 1 1 1 1
          1 1 1 1 1 1
          1 1 1 1 1 1
          1 1 1 1 1 1
          1 1 1 1 1 1
          1 1 1 1 1 1
          1 1 1 1 1 1
          1 1 1 1 1 1
          1 1 1 1 1 1
          1 1 1 1 1 1
          1 1 1 1 1 1
          1 1 1 1 1 1
          1 1 1 1 1 1
          1 1 1 1 1 1
          1 1 1 1 1 1
          1 1 1 1 1 1
          1 1 1 1 1 1
          1 1 1 1 1 1
          1 1 1 1 1 1
          1 1 1 1 1 1
          1 1 1 1 1 1
          1 1 1 1 1 1
          1 1 1 1 1 1
          1 1 1 1 1 1
          1 1 1 1 1 1
          1 1 1 1 1 1
          1 1 1 1 1 1
          1 1 1 1 1 1
          1 1 1 1 1 1
          1 1 1 1 1 1
          1 1 1 1 1 1
          1 1 1 1 1 1
          1 1 1 1 1 1
          1 1 1 1 1 1
          1 1 1 1 1 1
          1 1 1 1 1 1
          1 1 1 1 1 1
          1 1 1 1 1 1
          1 1 1 1 1 1
          1 1 1 1 1 1
          1 1 1 1 1 1
          1 1 1 1 1 1
          1 1 1 1 1 1
          1 1 1 1 1 1
          1 1 1 1 1 1
          1 1 1 1 1 1
          1 1 1 1 1 1
          1 1 1 1 1 1
          1 1 1 1 1 1
          1 1 1 1 1 1
          1 1 1 1 1 1
          1 1 1 1 1 1
          1 1 1 1 1 1
          1 1 1 1 1 1
          1 1 1 1 1 1
          1 1 1 1 1 1
          1 1 1 1 1 1
          1 1 1 1 1 1
          1 1 1 1 1 1
          1 1 1 1 1 1
          1 1 1 1 1 1
          1 1 1 1 1 1
          1 1 1 1 1 1
          1 1 1 1 1 1
          1 1 1 1 1 1
          1 1 1 1 1 1
          1 1 1 1 1 1
          1 1 1 1 1 1
          1 1 1 1 1 1
          1 1 1 1 1 1
          1 1 1 1 1 1
          1 1 1 1 1 1
          1 1 1 1 1 1
          1 1 1 1 1 1
          1 1 1 1 1 1
          1 1 1 1 1 1
          1 1 1 1 1 1
          1 1 1 1 1 1
          1 1 1 1 1 1
          1 1 1 1 1 1
          1 1 1 1 1 1
          1 1 1 1 1 1
          1 1 1 1 1 1
          1 1 1 1 1 1
          1 1 1 1 1 1
          1 1 1 1 1 1
          1 1 1 1 1 1
          1 1 1 1 1 1
          1 1 1 1 1 1
          1 1 1 1 1 1
          1 1 1 1 1 1
          1 1 1 1 1 1
          1 1 1 1 1 1
          1 1 1 1 1 1
          1 1 1 1 1 1
          1 1 1 1 1 1
          1 1 1 1 1 1
          1 1 1 1 1 1
          1 1 1 1 1 1
          1 1 1 1 1 1
          1 1 1 1 1 1
          1 1 1 1 1 1
          1 1 1 1 1 1
          1 1 1 1 1 1
          1 1 1 1 1 1
          1 1 1 1 1 1
          1 1 1 1 1 1
          1 1 1 1 1 1
          1 1 1 1 1 1
          1 1 1 1 1 1
          1 1 1 1 1 1
          1 1 1 1 1 1
          1 1 1 1 1 1
          1 1 1 1 1 1
          1 1 1 1 1 1
          1 1 1 1 1 1
          1 1 1 1 1 1
          1 1 1 1 1 1
          1 1 1 1 1 1
          1 1 1 1 1 1
          1 1 1 1 1 1
          1 1 1 1 1 1
          1 1 1 1 1 1
          1 1 1 1 1 1
          1 1 1 1 1 1
          1 1 1 1 1 1
          1 1 1 1 1 1
          1 1 1 1 1 1
          1 1 1 1 1 1
          1 1 1 1 1 1
          1 1 1 1 1 1
          1 1 1 1 1 1
          1 1 1 1 1 1
          1 1 1 1 1 1
          1 1 1 1 1 1
          1 1 1 1 1 1
          1 1 1 1 1 1
          1 1 1 1 1 1
          1 1 1 1 1 1
          1 1 1 1 1 1
          1 1 1 1 1 1
          1 1 1 1 1 1
          1 1 1 1 1 1
          1 1 1 1 1 1
          1 1 1 1 1 1
          1 1 1 1 1 1
          1 1 1 1 1 1
          1 1 1 1 1 1
          1 1 1 1 1 1
          1 1 1 1 1 1
          1 1 1 1 1 1
          1 1 1 1 1 1
          1 1 1 1 1 1
          1 1 1 1 1 1
          1 1 1 1 1 1
          1 1 1 1 1 1
          1 1 1 1 1 1
          1 1 1 1 1 1
          1 1 1 1 1 1
          1 1 1 1 1 1
          1 1 1 1 1 1
          1 1 1 1 1 1
          1 1 1 1 1 1
          1 1 1 1 1 1
          1 1 1 1 1 1
          1 1 1 1 1 1
          1 1 1 1 1 1
          1 1 1 1 1 1
          1 1 1 1 1 1
          1 1 1 1 1 1
          1 1 1 1 1 1
          1 1 1 1 1 1
          1 1 1 1 1 1
          1 1 1 1 1 1
          1 1 1 1 1 1
          1 1 1 1 1 1
          1 1 1 1 1 1
          1 1 1 1 1 1
          1 1 1 1 1 1
          1 1 1 1 1 1
          1 1 1 1 1 1
          1 1 1 1 1 1
          1 1 1 1 1 1
          1 1 1 1 1 1
          1 1 1 1 1 1
          1 1 1 1 1 1
          1 1 1 1 1 1
          1 1 1 1 1 1
          1 1 1 1 1 1
          1 1 1 1 1 1
          1 1 1 1 1 1
          1 1 1 1 1 1
          1 1 1
        </DataArray>
        <DataArray type="Float64" Name="diameter" format="ascii" RangeMin="1.005850354e-06" RangeMax="1.3597901472e-06">
          1.1192021463e-06 1.3041429619e-06 1.3499033828e-06 1.1394528377e-06 1.1534162684e-06 1.331657842e-06
          1.1576998762e-06 1.1580978462e-06 1.2574146395e-06 1.0901058985e-06 1.3158378621e-06 1.2992962241e-06
          1.1603760719e-06 1.1329854939e-06 1.3395574589e-06 1.1326355396e-06 1.0943044138e-06 1.2221790974e-06
          1.0364436404e-06 1.1840944922e-06 1.1946585683e-06 1.1878772291e-06 1.2080894195e-06 1.226397413e-06
          1.1344210853e-06 1.2903433691e-06 1.2929882025e-06 1.2065289657e-06 1.3536703617e-06 1.2288764724e-06
          1.2648642996e-06 1.2744153086e-06 1.1384107917e-06 1.1479767654e-06 1.1168730553e-06 1.3063446679e-06
          1.1546586212e-06 1.2364107247e-06 1.1855952093e-06 1.3295898884e-06 1.3477484874e-06 1.1795512736e-06
          1.2501306574e-06 1.1841979275e-06 1.2232655222e-06 1.090903102e-06 1.2862951711e-06 1.1426175331e-06
          1.2180476749e-06 1.305240269e-06 1.2198878922e-06 1.2933978408e-06 1.1665514384e-06 1.359072185e-06
          1.2399155997e-06 1.1423334593e-06 1.0974860548e-06 1.1197738395e-06 1.1359268094e-06 1.1329250662e-06
          1.2157700754e-06 1.1891028791e-06 1.2119867894e-06 1.3559398577e-06 1.1690406935e-06 1.1761399729e-06
          1.1426286048e-06 1.005850354e-06 1.2008899721e-06 1.0559487438e-06 1.1458837257e-06 1.159515255e-06
          1.2019673341e-06 1.2782785953e-06 1.1780119832e-06 1.1115153497e-06 1.2739408765e-06 1.2164338063e-06
          1.2943806524e-06 1.1790040549e-06 1.1433264087e-06 1.3309618972e-06 1.2430617842e-06 1.1615038348e-06
          1.2109786272e-06 1.3143339832e-06 1.2918086848e-06 1.212693958e-06 1.3159149697e-06 1.1357913225e-06
          1.1832591027e-06 1.2552838451e-06 1.1297998824e-06 1.1598675468e-06 1.1162062193e-06 1.2193200155e-06
          1.2392024847e-06 1.1937757961e-06 1.1430750112e-06 1.2253461318e-06 1.2913778468e-06 1.1319962657e-06
          1.3415620904e-06 1.1556069585e-06 1.161863732e-06 1.3450880549e-06 1.1870659459e-06 1.158960962e-06
          1.1126441764e-06 1.2041037176e-06 1.1361908704e-06 1.1807819341e-06 1.1945997983e-06 1.2317335036e-06
          1.2400826137e-06 1.2589979151e-06 1.2015588159e-06 1.2201080891e-06 1.1337368589e-06 1.3035088606e-06
          1.2732179247e-06 1.2656241679e-06 1.2040884681e-06 1.2451908299e-06 1.0762615349e-06 1.3585492337e-06
          1.3171166156e-06 1.2682889592e-06 1.1021490118e-06 1.1130039492e-06 1.2754469911e-06 1.2272455449e-06
          1.2971624065e-06 1.2647565114e-06 1.2536586011e-06 1.1512762442e-06 1.0475588859e-06 1.2284713319e-06
          1.2046270115e-06 1.1988589651e-06 1.2569250257e-06 1.0809131426e-06 1.1838424334e-06 1.2309043066e-06
          1.3045776703e-06 1.0271488265e-06 1.1264316911e-06 1.0833447363e-06 1.337480061e-06 1.2875205735e-06
          1.0595095152e-06 1.0729038994e-06 1.1811040544e-06 1.1161586458e-06 1.1826611979e-06 1.0467008527e-06
          1.1943229513e-06 1.0948416463e-06 1.2290401442e-06 1.3496640603e-06 1.0896962977e-06 1.1624635629e-06
          1.1930993123e-06 1.1597455025e-06 1.174998788e-06 1.3137465829e-06 1.0843915502e-06 1.3023082144e-06
          1.3528607851e-06 1.1931605321e-06 1.1827619278e-06 1.3531145011e-06 1.1440216824e-06 1.1268728033e-06
          1.2466701113e-06 1.0836974538e-06 1.3339960918e-06 1.2470149387e-06 1.3134511816e-06 1.1261475332e-06
          1.0844974375e-06 1.1435434127e-06 1.0608295598e-06 1.3347573344e-06 1.3428624601e-06 1.1955043126e-06
          1.1783924102e-06 1.277876991e-06 1.1620827024e-06 1.2200311415e-06 1.1287397307e-06 1.1291145244e-06
          1.3378534964e-06 1.2200956773e-06 1.1368601786e-06 1.296918901e-06 1.229259147e-06 1.1607769305e-06
          1.2332123656e-06 1.3214379527e-06 1.1343915737e-06 1.1153972465e-06 1.3257818026e-06 1.2809806864e-06
          1.2717493533e-06 1.1302433611e-06 1.2880354727e-06 1.2748529298e-06 1.2865832177e-06 1.231125034e-06
          1.1799200013e-06 1.0435112789e-06 1.2041290772e-06 1.108930912e-06 1.1747085354e-06 1.2626355994e-06
          1.0764023997e-06 1.2499740511e-06 1.1857913113e-06 1.2266968859e-06 1.1313875006e-06 1.171781146e-06
          1.3463127344e-06 1.1416595546e-06 1.0666130895e-06 1.2103037683e-06 1.1350670898e-06 1.0162304219e-06
          1.1852835355e-06 1.288329509e-06 1.2048010036e-06 1.1406161427e-06 1.3423797484e-06 1.2106904217e-06
          1.2707291173e-06 1.1373411066e-06 1.2530405867e-06 1.2376318517e-06 1.2888332582e-06 1.2652080003e-06
          1.3398600785e-06 1.3400821675e-06 1.0516840757e-06 1.2174708104e-06 1.2582364638e-06 1.3226790708e-06
          1.136210395e-06 1.149795847e-06 1.2443791297e-06 1.299217995e-06 1.2432465912e-06 1.16665807e-06
          1.031412345e-06 1.1810563094e-06 1.2423964464e-06 1.2875897508e-06 1.186722684e-06 1.1176401239e-06
          1.3273192377e-06 1.1827296161e-06 1.2932349869e-06 1.1341441958e-06 1.1222568353e-06 1.2150864343e-06
          1.1720210902e-06 1.0989526574e-06 1.1934594099e-06 1.128406609e-06 1.282921181e-06 1.257464198e-06
          1.2227499275e-06 1.3087816588e-06 1.1678114166e-06 1.2635941969e-06 1.3249653365e-06 1.3077414683e-06
          1.1665484143e-06 1.3393859979e-06 1.2417605587e-06 1.1944932164e-06 1.331795245e-06 1.1312481656e-06
          1.3096502677e-06 1.2794025691e-06 1.1859819972e-06 1.2284243117e-06 1.1439981219e-06 1.2774351075e-06
          1.0861963061e-06 1.1069793118e-06 1.3026283873e-06 1.2854846677e-06 1.0369101753e-06 1.339075433e-06
          1.1442794741e-06 1.2792924264e-06 1.059680152e-06 1.2770120695e-06 1.2763588947e-06 1.1545540505e-06
          1.169380813e-06 1.2322883679e-06 1.3146287908e-06 1.2004435703e-06 1.337962028e-06 1.1533016813e-06
          1.3493419095e-06 1.0598583618e-06 1.3013579243e-06 1.1512402092e-06 1.1134894229e-06 1.0884633701e-06
          1.3244477832e-06 1.2971388321e-06 1.2533077684e-06 1.2393463523e-06 1.0700396348e-06 1.0210774743e-06
          1.2760651754e-06 1.192269372e-06 1.3038330707e-06 1.2638413944e-06 1.349824127e-06 1.1618541803e-06
          1.2044265407e-06 1.2520038169e-06 1.2305409922e-06 1.0136549655e-06 1.1935961667e-06 1.2058334566e-06
          1.2462898619e-06 1.2907191006e-06 1.210195052e-06 1.3241324349e-06 1.2422694755e-06 1.1847325306e-06
          1.107768605e-06 1.1731053414e-06 1.0719154373e-06 1.2250898044e-06 1.1298482637e-06 1.1907890603e-06
          1.0441194194e-06 1.2677513407e-06 1.3122806395e-06 1.3099421281e-06 1.2319664966e-06 1.3217545271e-06
          1.3248772602e-06 1.1197540586e-06 1.146844147e-06 1.3461618237e-06 1.2863165957e-06 1.2960005674e-06
          1.2823417877e-06 1.2549424997e-06 1.2130109467e-06 1.2206628878e-06 1.2795357232e-06 1.1755309156e-06
          1.2972212924e-06 1.1032473317e-06 1.1324324634e-06 1.1776225197e-06 1.2261365601e-06 1.1972397714e-06
          1.2054817723e-06 1.2169103404e-06 1.1570232847e-06 1.2139036032e-06 1.2849043771e-06 1.1813487649e-06
          1.267230963e-06 1.1638642658e-06 1.2287070578e-06 1.2051525661e-06 1.2139122182e-06 1.1160350455e-06
          1.1238990409e-06 1.1575083421e-06 1.2151735212e-06 1.1655158821e-06 1.1529661685e-06 1.1796155867e-06
          1.1802391771e-06 1.1632327337e-06 1.2232218525e-06 1.3360203264e-06 1.267087767e-06 1.2768374851e-06
          1.1902920352e-06 1.2971033204e-06 1.1155660043e-06 1.2309643229e-06 1.3270850227e-06 1.3159578208e-06
          1.2843584346e-06 1.3276130769e-06 1.3562326599e-06 1.2115476407e-06 1.1580788747e-06 1.2948524937e-06
          1.304397415e-06 1.0658490181e-06 1.0983824824e-06 1.1588988965e-06 1.2362445564e-06 1.1623719024e-06
          1.2933458927e-06 1.1122714414e-06 1.3053137779e-06 1.187377562e-06 1.18895469e-06 1.1784210956e-06
          1.2240916063e-06 1.10510337e-06 1.1682103481e-06 1.1959102701e-06 1.061536098e-06 1.1512482573e-06
          1.1470153802e-06 1.1821997515e-06 1.1511998775e-06 1.1940834197e-06 1.1751221958e-06 1.1427686508e-06
          1.1687491522e-06 1.2415022493e-06 1.2771049604e-06 1.2016837432e-06 1.1886898126e-06 1.2253645373e-06
          1.2309726538e-06 1.2805215865e-06 1.2232526281e-06 1.2562690342e-06 1.2339358547e-06 1.1475229738e-06
          1.1703003952e-06 1.0520741739e-06 1.0523434195e-06 1.0279568449e-06 1.1178039846e-06 1.1944534552e-06
          1.179299852e-06 1.1535686394e-06 1.1354514763e-06 1.1102211076e-06 1.1619050245e-06 1.1426880775e-06
          1.1970843529e-06 1.1198826174e-06 1.1355116431e-06 1.0470153648e-06 1.1299229975e-06 1.1068053447e-06
          1.2307805696e-06 1.1765079382e-06 1.1399031467e-06 1.1021901471e-06 1.1763097889e-06 1.1519992202e-06
          1.183794522e-06 1.1433089905e-06 1.1236117444e-06 1.1627281756e-06 1.0983094066e-06 1.1314654955e-06
          1.1037858815e-06 1.0966533286e-06 1.121106103e-06 1.0907182036e-06 1.1588152542e-06 1.1097326776e-06
          1.2133353895e-06 1.2062679531e-06 1.0746984159e-06 1.1488494074e-06 1.1599096893e-06 1.0734826272e-06
          1.1742801869e-06 1.173615497e-06 1.0872626348e-06 1.2330179604e-06 1.165894465e-06 1.13593992e-06
          1.0634293962e-06 1.0232560527e-06 1.0521825039e-06 1.1406315692e-06 1.0428350447e-06 1.0105513306e-06
          1.0519130787e-06 1.0207243893e-06 1.1474272165e-06 1.0411809164e-06 1.0118217114e-06 1.0809640769e-06
          1.0612538787e-06 1.0190141434e-06 1.0701737266e-06 1.105469479e-06 1.1012452651e-06 1.1502227764e-06
          1.1225200582e-06 1.1123223386e-06 1.0835252269e-06 1.1096674226e-06 1.0265812368e-06 1.0530906495e-06
          1.1168527867e-06 1.0364472563e-06 1.0790242563e-06 1.1514510185e-06 1.1614204784e-06 1.0711924159e-06
          1.0375603677e-06 1.1280578676e-06 1.1323057682e-06 1.1218752695e-06 1.0434257704e-06 1.0261083063e-06
          1.1020490508e-06 1.1411412029e-06 1.1181572181e-06 1.1012768937e-06 1.0075381215e-06 1.109296432e-06
          1.1320465289e-06 1.1505894883e-06 1.1423756603e-06 1.1004167281e-06 1.1250717698e-06 1.1697788314e-06
          1.0994470992e-06 1.2112968897e-06 1.2729787255e-06 1.1514098715e-06 1.1968375347e-06 1.2190399913e-06
          1.1169396463e-06 1.2015872811e-06 1.1495247268e-06 1.3358879734e-06 1.264259995e-06 1.1466952595e-06
          1.1708414971e-06 1.3387482473e-06 1.3021506238e-06 1.3052015049e-06 1.1942624154e-06 1.2977851113e-06