<?xml version="1.0"?>
<VTKFile type="UnstructuredGrid" version="0.1" byte_order="LittleEndian" header_type="UInt32" compressor="vtkZLibDataCompressor">
  <UnstructuredGrid>
    <Piece NumberOfPoints="15292" NumberOfCells="15292">
      <PointData>
        <DataArray type="Int32" Name="id" format="ascii" RangeMin="1" RangeMax="15292">
          8 6 5 11 12 13
          21 22 23 32 33 34
          44 45 46 47 48 49
          57 58 67 68 78 79
          80 81 82 83 94 95
          96 97 98 99 113 114
          115 116 117 118 138 139
          140 141 142 143 144 145
          160 161 162 163 164 165
          166 167 168 189 190 191
          192 193 194 195 196 229
          230 231 232 233 234 235
          236 237 238 239 240 241
          242 243 274 275 276 277
          278 279 280 281 282 283
          284 285 286 287 313 314
          315 316 317 318 319 320
          321 322 323 324 371 372
          373 374 375 376 377 378
          379 380 381 382 383 384
          385 386 447 448 449 450
          451 452 453 454 455 456
          457 458 459 460 461 462
          463 464 465 466 467 510
          511 512 513 514 515 516
          517 518 519 520 521 522
          523 524 525 526 527 528
          529 530 531 580 581 582
          583 584 585 586 587 588
          589 590 591 592 593 594
          595 596 597 598 599 600
          601 602 603 604 605 606
          607 608 609 610 679 680
          681 682 683 684 685 686
          687 688 689 690 691 692
          693 694 695 696 697 698
          699 700 701 702 703 704
          705 791 792 793 794 795
          796 797 798 799 800 801
          802 803 804 805 806 807
          808 809 810 895 896 897
          898 899 900 901 902 903
          904 905 906 907 908 909
          910 911 912 913 914 915
          916 1001 1002 1003 1004 1005
          1006 1007 1008 1009 1010 1011
          1012 1013 1014 1015 1016 1017
          1018 1019 1020 1021 1022 1023
          1024 1025 1026 1027 1028 1029
          1030 1031 1032 1033 1034 1035
          1036 1037 1038 1039 1040 1041
          1042 1043 1044 1045 1046 1047
          1048 1049 1143 1144 1145 1146
          1147 1148 1149 1150 1151 1152
          1153 1154 1155 1156 1157 1158
          1159 1160 1161 1162 1163 1164
          1165 1166 1167 1168 1169 1170
          1171 1172 1173 1174 1175 1176
          1177 1178 1179 1180 1181 1182
          1183 1289 1290 1291 1292 1293
          1294 1295 1296 1297 1298 1299
          1300 1301 1302 1303 1304 1305
          1306 1307 1308 1309 1310 1311
          1312 1313 1314 1315 1316 1317
          1318 1319 1320 1321 1322 1323
          1324 1325 1326 1327 1328 1329
          1330 1331 1332 1333 1334 1335
          1457 1458 1459 1460 1461 1462
          1463 1464 1465 1466 1467 1468
          1469 1470 1471 1472 1473 1474
          1475 1476 1477 1478 1479 1480
          1481 1482 1483 1484 1485 1486
          1487 1488 1489 1490 1611 1612
          1613 1614 1615 1616 1617 1618
          1619 1620 1621 1622 1623 1624
          1625 1626 1627 1628 1629 1630
          1631 1632 1633 1634 1635 1636
          1637 1638 1639 1640 1641 1642
          1643 1644 1645 1646 1647 1648
          1649 1650 1651 1652 1653 1654
          1655 1656 1657 1658 1659 1782
          1783 1784 1785 1786 1787 1788
          1789 1790 1791 1792 1793 1794
          1795 1796 1797 1798 1799 1800
          1801 1802 1803 1804 1805 1806
          1807 1808 1809 1810 1811 1812
          1813 1814 1815 1816 1817 1818
          1819 1820 1821 1822 1823 1824
          1825 1826 1827 1828 1829 1830
          1831 1954 1955 1956 1957 1958
          1959 1960 1961 1962 1963 1964
          1965 1966 1967 1968 1969 1970
          1971 1972 1973 1974 1975 1976
          1977 1978 1979 1980 1981 1982
          1983 1984 1985 1986 1987 1988
          1989 1990 1991 1992 1993 1994
          1995 1996 1997 1998 1999 2000
          2001 2002 2003 2004 2005 2164
          2165 2166 2167 2168 2169 2170
          2171 2172 2173 2174 2175 2176
          2177 2178 2179 2180 2181 2182
          2183 2184 2185 2186 2187 2188
          2189 2190 2191 2192 2193 2194
          2195 2196 2197 2198 2199 2200
          2201 2202 2203 2204 2205 2206
          2207 2208 2209 2210 2211 2212
          2354 2355 2356 2357 2358 2359
          2360 2361 2362 2363 2364 2365
          2366 2367 2368 2369 2370 2371
          2372 2373 2374 2375 2376 2377
          2378 2379 2380 2381 2382 2383
          2384 2385 2386 2387 2388 2389
          2390 2391 2392 2393 2394 2395
          2396 2397 2398 2399 2400 2401
          2402 2403 2404 2405 2406 2407
          2408 2568 2569 2570 2571 2572
          2573 2574 2575 2576 2577 2578
          2579 2580 2581 2582 2583 2584
          2585 2586 2587 2588 2589 2590
          2591 2592 2593 2594 2595 2596
          2597 2598 2599 2600 2601 2602
          2603 2604 2605 2606 2607 2608
          2609 2610 2611 2612 2613 2614
          2615 2616 2617 2618 2619 2620
          2621 2622 2623 2624 2625 2626
          2627 2628 2795 2796 2797 2798
          2799 2800 2801 2802 2803 2804
          2805 2806 2807 2808 2809 2810
          2811 2812 2813 2814 2815 2816
          2817 2818 2819 2820 2821 2822
          2823 2824 2825 2826 2827 2828
          2829 2830 2831 2832 2833 2834
          2835 2836 2837 2838 2839 2840
          2841 2842 2843 2844 2845 2846
          2847 2848 2849 2850 2851 2852
          2853 2854 2855 2856 2857 2858
          3001 3002 3003 3004 3005 3006
          3007 3008 3009 3010 3011 3012
          3013 3014 3015 3016 3017 3018
          3019 3020 3021 3022 3023 3024
          3025 3026 3027 3028 3029 3030
          3031 3032 3033 3034 3035 3036
          3037 3038 3039 3040 3041 3042
          3043 3044 3045 3046 3047 3048
          3049 3050 3051 3052 3053 3054
          3055 3056 3057 3058 3059 3060
          3061 3062 3063 3236 3237 3238
          3239 3240 3241 3242 3243 3244
          3245 3246 3247 3248 3249 3250
          3251 3252 3253 3254 3255 3256
          3257 3258 3259 3260 3261 3262
          3263 3264 3265 3266 3267 3268
          3269 3270 3271 3272 3273 3274
          3275 3276 3277 3278 3279 3280
          3281 3282 3283 3284 3285 3286
          3287 3288 3289 3290 3291 3292
          3293 3294 3295 3296 3451 3452
          3453 3454 3455 3456 3457 3458
          3459 3460 3461 3462 3463 3464
          3465 3466 3467 3468 3469 3470
          3471 3472 3473 3474 3475 3476
          3477 3478 3479 3480 3481 3482
          3483 3484 3485 3486 3487 3488
          3489 3490 3491 3492 3493 3494
          3495 3496 3497 3498 3499 3500
          3501 3502 3503 3504 3505 3506
          3507 3508 3509 3510 3511 3512
          3513 3514 3515 3516 3517 3518
          3519 3717 3718 3719 3720 3721
          3722 3723 3724 3725 3726 3727
          3728 3729 3730 3731 3732 3733
          3734 3735 3736 3737 3738 3739
          3740 3741 3742 3743 3744 3745
          3746 3747 3748 3749 3750 3751
          3752 3753 3754 3755 3756 3757
          3758 3759 3760 3761 3762 3763
          3764 3765 3766 3767 3768 3769
          3770 3771 3772 3773 3774 3775
          3776 3777 3778 3779 3780 3781
          3782 3783 3784 3785 3786 3987
          3988 3989 3990 3991 3992 3993
          3994 3995 3996 3997 3998 3999
          4000 4001 4002 4003 4004 4005
          4006 4007 4008 4009 4010 4011
          4012 4013 4014 4015 4016 4017
          4018 4019 4020 4021 4022 4023
          4024 4025 4026 4027 4028 4029
          4030 4031 4032 4033 4034 4035
          4036 4037 4038 4039 4040 4041
          4042 4043 4044 4045 4046 4047
          4048 4049 4050 4051 4052 4053
          4054 4055 4056 4057 4058 4059
          4060 4061 4062 4063 4064 4065
          4066 4067 4068 4069 4256 4257
          4258 4259 4260 4261 4262 4263
          4264 4265 4266 4267 4268 4269
          4270 4271 4272 4273 4274 4275
          4276 4277 4278 4279 4280 4281
          4282 4283 4284 4285 4286 4287
          4288 4289 4290 4291 4292 4293
          4294 4295 4296 4297 4298 4299
          4300 4301 4302 4303 4304 4305
          4306 4307 4308 4309 4310 4311
          4312 4313 4314 4315 4316 4317
          4318 4319 4320 548 5956 4506
          4507 4508 4509 4510 4511 4512
          4513 4514 4515 4516 4517 4518
          4519 4520 4521 4522 4523 4524
          4525 4526 4527 4528 4529 4530
          4531 4532 4533 4534 4535 4536
          4537 4538 4539 4540 4541 4542
          4543 4544 4545 4546 4547 4548
          4549 4550 4551 4552 4553 4554
          4555 4556 4557 4558 4559 4560
          4561 4562 4563 4564 4565 4566
          4567 4568 4569 4570 4571 4572
          4573 4574 4575 4576 4577 4578
          4579 4580 4581 4582 4583 4584
          4585 4586 4789 4790 4791 4792
          4793 4794 4795 4796 4797 4798
          4799 4800 4801 4802 4803 4804
          4805 4806 4807 4808 4809 4810
          4811 4812 4813 4814 4815 4816
          4817 4818 4819 4820 4821 4822
          4823 4824 4825 4826 4827 4828
          4829 4830 4831 4832 4833 4834
          4835 4836 4837 4838 4839 4840
          4841 4842 4843 4844 4845 4846
          4847 4848 4849 4850 4851 4852
          4853 4854 4855 4856 4857 4858
          4859 4860 4861 4862 4863 4864
          4865 4866 4867 5038 5039 5040
          5041 5042 5043 5044 5045 5046
          5047 5048 5049 5050 5051 5052
          5053 5054 5055 5056 5057 5058
          5059 5060 5061 5062 5063 5064
          5065 5066 5067 5068 5069 5070
          5071 5072 5073 5074 5075 5076
          5077 5078 5079 5080 5081 5082
          5083 5084 5085 5086 5087 5088
          5089 5090 5091 5092 5093 5094
          5095 5096 5097 5098 5099 5100
          5101 5102 5103 5104 5303 5304
          5305 5306 5307 5308 5309 5310
          5311 5312 5313 5314 5315 5316
          5317 5318 5319 5320 5321 5322
          5323 5324 5325 5326 5327 5328
          5329 5330 5331 5332 5333 5334
          5335 5336 5337 5338 5339 5340
          5341 5342 5343 5344 5345 5346
          5347 5348 5349 5350 5351 5352
          5353 5354 5355 5356 5357 5358
          5359 5360 5361 5362 5363 5364
          5365 5366 5367 5368 5369 5370
          5371 5372 5373 5374 5375 5376
          5377 5378 5379 5380 10123 5575
          5576 5577 5578 5579 5580 5581
          5582 5583 5584 5585 5586 5587
          5588 5589 5590 5591 5592 5593
          5594 5595 5596 5597 5598 5599
          5600 5601 5602 5603 5604 5605
          5606 5607 5608 5609 5610 5611
          5612 5613 5614 5615 5616 5617
          5618 5619 5620 5621 5622 5623
          5624 5625 5626 5627 5628 5629
          5630 5631 5632 5633 5634 5635
          5636 5637 5638 5639 5640 5641
          5642 5643 5644 5645 5646 5647
          5648 5649 3126 5861 5862 5863
          5864 5865 5866 5867 5868 5869
          5870 5871 5872 5873 5874 5875
          5876 5877 5878 5879 5880 5881
          5882 5883 5884 5885 5886 5887
          5888 5889 5890 5891 5892 5893
          5894 5895 5896 5897 5898 5899
          5900 5901 5902 5903 5904 5905
          5906 5907 5908 5909 5910 5911
          5912 5913 5914 5915 5916 5917
          5918 5919 5920 5921 5922 5923
          5924 5925 5926 5927 5928 5929
          5930 5931 5932 5933 5934 5935
          5936 5937 5938 5939 5940 5941
          5942 5943 5944 5945 5946 5947
          5948 5949 5950 5951 5952 5953
          5954 5955 6135 6136 6137 6138
          6139 6140 6141 6142 6143 6144
          6145 6146 6147 6148 6149 6150
          6151 6152 6153 6154 6155 6156
          6157 6158 6159 6160 6161 6162
          6163 6164 6165 6166 6167 6168
          6169 6170 6171 6172 6173 6174
          6175 6176 6177 6178 6179 6180
          6181 6182 6183 6184 6185 6186
          6187 6188 6189 6190 6191 6192
          6193 6194 6195 6196 6197 6198
          6199 6200 6201 6202 6203 6204
          6205 6206 6207 6208 6209 6210
          6211 6212 6213 6214 6215 6216
          6217 6218 6219 6220 6221 6222
          6223 6224 6225 2919 6442 6443
          6444 6445 6446 6447 6448 6449
          6450 6451 6452 6453 6454 6455
          6456 6457 6458 6459 6460 6461
          6462 6463 6464 6465 6466 6467
          6468 6469 6470 6471 6472 6473
          6474 6475 6476 6477 6478 6479
          6480 6481 6482 6483 6484 6485
          6486 6487 6488 6489 6490 6491
          6492 6493 6494 6495 6496 6497
          6498 6499 6500 6501 6502 6503
          6504 6505 6506 6507 6508 6509
          6510 6511 6512 6513 6514 6515
          6516 6517 6518 6519 6520 6521
          6522 6523 6564 6769 6770 6771
          6772 6773 6774 6775 6776 6777
          6778 6779 6780 6781 6782 6783
          6784 6785 6786 6787 6788 6789
          6790 6791 6792 6793 6794 6795
          6796 6797 6798 6799 6800 6801
          6802 6803 6804 6805 6806 6807
          6808 6809 6810 6811 6812 6813
          6814 6815 6816 6817 6818 6819
          6820 6821 6822 6823 6824 6825
          6826 6827 6828 6829 6830 6831
          6832 6833 6834 6835 6836 6837
          6838 6839 6840 6841 6842 6843
          6844 6845 6846 6847 6848 6849
          6850 6851 7050 7051 7052 7053
          7054 7055 7056 7057 7058 7059
          7060 7061 7062 7063 7064 7065
          7066 7067 7068 7069 7070 7071
          7072 7073 7074 7075 7076 7077
          7078 7079 7080 7081 7082 7083
          7084 7085 7086 7087 7088 7089
          7090 7091 7092 7093 7094 7095
          7096 7097 7098 7099 7100 7101
          7102 7103 7104 7105 7106 7107
          7108 7109 7110 7111 7112 7113
          7114 7115 7116 7117 7118 7119
          7120 7121 7122 7123 7124 7125
          7126 7127 7128 7129 7130 7131
          7132 7133 7134 747 1520 5997
          7359 7360 7361 7362 7363 7364
          7365 7366 7367 7368 7369 7370
          7371 7372 7373 7374 7375 7376
          7377 7378 7379 7380 7381 7382
          7383 7384 7385 7386 7387 7388
          7389 7390 7391 7392 7393 7394
          7395 7396 7397 7398 7399 7400
          7401 7402 7403 7404 7405 7406
          7407 7408 7409 7410 7411 7412
          7413 7414 7415 7416 7417 7418
          7419 7420 7421 7422 7423 7424
          7425 7426 7427 7428 7429 7430
          7431 7432 7433 7434 7435 7436
          7437 7438 7439 7440 7441 7442
          7443 7444 7445 7446 7447 7448
          7449 7450 7451 7452 7453 7454
          7455 7456 7457 7458 7459 7460
          7461 7462 7463 7464 2442 3076
          4117 9432 7575 7700 7701 7702
          7703 7704 7705 7706 7707 7708
          7709 7710 7711 7712 7713 7714
          7715 7716 7717 7718 7719 7720
          7721 7722 7723 7724 7725 7726
          7727 7728 7729 7730 7731 7732
          7733 7734 7735 7736 7737 7738
          7739 7740 7741 7742 7743 7744
          7745 7746 7747 7748 7749 7750
          7751 7752 7753 7754 7755 7756
          7757 7758 7759 7760 7761 7762
          7763 7764 7765 7766 7767 7768
          7769 7770 7771 7772 7773 7774
          7775 7776 7777 7778 7779 7780
          7781 7782 7783 7784 7785 12645
          7793 7995 7996 7997 7998 7999
          8000 8001 8002 8003 8004 8005
          8006 8007 8008 8009 8010 8011
          8012 8013 8014 8015 8016 8017
          8018 8019 8020 8021 8022 8023
          8024 8025 8026 8027 8028 8029
          8030 8031 8032 8033 8034 8035
          8036 8037 8038 8039 8040 8041
          8042 8043 8044 8045 8046 8047
          8048 8049 8050 8051 8052 8053
          8054 8055 8056 8057 8058 8059
          8060 8061 8062 8063 8064 8065
          8066 8067 8068 8069 8070 8071
          8072 8073 8074 8075 8076 8077
          8078 8079 8080 8081 8082 8083
          8084 8085 8400 10818 11938 7162
          7796 8730 8319 8320 8321 8322
          8323 8324 8325 8326 8327 8328
          8329 8330 8331 8332 8333 8334
          8335 8336 8337 8338 8339 8340
          8341 8342 8343 8344 8345 8346
          8347 8348 8349 8350 8351 8352
          8353 8354 8355 8356 8357 8358
          8359 8360 8361 8362 8363 8364
          8365 8366 8367 8368 8369 8370
          8371 8372 8373 8374 8375 8376
          8377 8378 8379 8380 8381 8382
          8383 8384 8385 8386 8387 8388
          8389 8390 8391 8392 8393 8394
          8395 8396 8397 8398 8399 8644
          8645 8646 8647 8648 8649 8650
          8651 8652 8653 8654 8655 8656
          8657 8658 8659 8660 8661 8662
          8663 8664 8665 8666 8667 8668
          8669 8670 8671 8672 8673 8674
          8675 8676 8677 8678 8679 8680
          8681 8682 8683 8684 8685 8686
          8687 8688 8689 8690 8691 8692
          8693 8694 8695 8696 8697 8698
          8699 8700 8701 8702 8703 8704
          8705 8706 8707 8708 8709 8710
          8711 8712 8713 8714 8715 8716
          8717 8718 8719 8720 8721 8722
          8723 8724 8725 8726 8727 8728
          8729 3381 1542 8783 8989 8990
          8991 8992 8993 8994 8995 8996
          8997 8998 8999 9000 9001 9002
          9003 9004 9005 9006 9007 9008
          9009 9010 9011 9012 9013 9014
          9015 9016 9017 9018 9019 9020
          9021 9022 9023 9024 9025 9026
          9027 9028 9029 9030 9031 9032
          9033 9034 9035 9036 9037 9038
          9039 9040 9041 9042 9043 9044
          9045 9046 9047 9048 9049 9050
          9051 9052 9053 9054 9055 9056
          9057 9058 9059 9060 9061 9062
          9063 9064 9065 9066 9067 9068
          9069 9070 9071 9072 9073 9074
          9075 9076 9077 9078 9079 9080
          9081 9082 7150 9327 9328 9329
          9330 9331 9332 9333 9334 9335
          9336 9337 9338 9339 9340 9341
          9342 9343 9344 9345 9346 9347
          9348 9349 9350 9351 9352 9353
          9354 9355 9356 9357 9358 9359
          9360 9361 9362 9363 9364 9365
          9366 9367 9368 9369 9370 9371
          9372 9373 9374 9375 9376 9377
          9378 9379 9380 9381 9382 9383
          9384 9385 9386 9387 9388 9389
          9390 9391 9392 9393 9394 9395
          9396 9397 9398 9399 9400 9401
          9402 9403 9404 9405 9406 9407
          9408 9409 9410 9411 9412 9413
          9414 9415 9416 9417 9418 9419
          9420 9421 9422 9423 9424 9425
          9426 9427 9428 9431 9430 2893
          10122 9481 9656 9657 9658 9659
          9660 9661 9662 9663 9664 9665
          9666 9667 9668 9669 9670 9671
          9672 9673 9674 9675 9676 9677
          9678 9679 9680 9681 9682 9683
          9684 9685 9686 9687 9688 9689
          9690 9691 9692 9693 9694 9695
          9696 9697 9698 9699 9700 9701
          9702 9703 9704 9705 9706 9707
          9708 9709 9710 9711 9712 9713
          9714 9715 9716 9717 9718 9719
          9720 9721 9722 9723 9724 9725
          9726 9727 9728 9729 9730 9731
          9732 9733 9734 9735 9736 9737
          9738 9 6580 7525 10005 10006
          10007 10008 10009 10010 10011 10012
          10013 10014 10015 10016 10017 10018
          10019 10020 10021 10022 10023 10024
          10025 10026 10027 10028 10029 10030
          10031 10032 10033 10034 10035 10036
          10037 10038 10039 10040 10041 10042
          10043 10044 10045 10046 10047 10048
          10049 10050 10051 10052 10053 10054
          10055 10056 10057 10058 10059 10060
          10061 10062 10063 10064 10065 10066
          10067 10068 10069 10070 10071 10072
          10073 10074 10075 10076 10077 10078
          10079 10080 10081 10082 10083 10084
          10085 10086 10087 10088 10089 10090
          10091 10092 10093 10094 10095 10096
          10097 10098 10099 10100 10101 10102
          10103 10104 10105 10106 10107 10108
          10109 10110 10111 10112 10113 10114
          10115 10116 10117 10118 10119 10120
          10121 10464 9766 10208 10371 10372
          10373 10374 10375 10376 10377 10378
          10379 10380 10381 10382 10383 10384
          10385 10386 10387 10388 10389 10390
          10391 10392 10393 10394 10395 10396
          10397 10398 10399 10400 10401 10402
          10403 10404 10405 10406 10407 10408
          10409 10410 10411 10412 10413 10414
          10415 10416 10417 10418 10419 10420
          10421 10422 10423 10424 10425 10426
          10427 10428 10429 10430 10431 10432
          10433 10434 10435 10436 10437 10438
          10439 10440 10441 10442 10443 10444
          10445 10446 10447 10448 10449 10450
          10451 10452 10453 10454 10455 10456
          10457 10458 10459 10460 10461 10462
          10463 10732 10733 10734 10735 10736
          10737 10738 10739 10740 10741 10742
          10743 10744 10745 10746 10747 10748
          10749 10750 10751 10752 10753 10754
          10755 10756 10757 10758 10759 10760
          10761 10762 10763 10764 10765 10766
          10767 10768 10769 10770 10771 10772
          10773 10774 10775 10776 10777 10778
          10779 10780 10781 10782 10783 10784
          10785 10786 10787 10788 10789 10790
          10791 10792 10793 10794 10795 10796
          10797 10798 10799 10800 10801 10802
          10803 10804 10805 10806 10807 10808
          10809 10810 10811 10812 10813 10814
          10815 10816 10817 13007 3088 5381
          3548 11097 11098 11099 11100 11101
          11102 11103 11104 11105 11106 11107
          11108 11109 11110 11111 11112 11113
          11114 11115 11116 11117 11118 11119
          11120 11121 11122 11123 11124 11125
          11126 11127 11128 11129 11130 11131
          11132 11133 11134 11135 11136 11137
          11138 11139 11140 11141 11142 11143
          11144 11145 11146 11147 11148 11149
          11150 11151 11152 11153 11154 11155
          11156 11157 11158 11159 11160 11161
          11162 11163 11164 11165 11166 11167
          11168 11169 11170 11171 11172 11173
          11174 11175 11176 11177 11178 11179
          11180 11181 11182 11183 11184 13006
          11569 9429 11196 11937 11461 11462
          11463 11464 11465 11466 11467 11468
          11469 11470 11471 11472 11473 11474
          11475 11476 11477 11478 11479 11480
          11481 11482 11483 11484 11485 11486
          11487 11488 11489 11490 11491 11492
          11493 11494 11495 11496 11497 11498
          11499 11500 11501 11502 11503 11504
          11505 11506 11507 11508 11509 11510
          11511 11512 11513 11514 11515 11516
          11517 11518 11519 11520 11521 11522
          11523 11524 11525 11526 11527 11528
          11529 11530 11531 11532 11533 11534
          11535 11536 11537 11538 11539 11540
          11541 11542 11543 11544 11545 11546
          11547 11548 11549 11550 11551 11552
          11553 11554 11555 11556 11557 11558
          11559 11560 11561 11562 11563 11564
          11565 11566 11567 11568 3581 6923
          14187 9466 10557 11843 11844 11845
          11846 11847 11848 11849 11850 11851
          11852 11853 11854 11855 11856 11857
          11858 11859 11860 11861 11862 11863
          11864 11865 11866 11867 11868 11869
          11870 11871 11872 11873 11874 11875
          11876 11877 11878 11879 11880 11881
          11882 11883 11884 11885 11886 11887
          11888 11889 11890 11891 11892 11893
          11894 11895 11896 11897 11898 11899
          11900 11901 11902 11903 11904 11905
          11906 11907 11908 11909 11910 11911
          11912 11913 11914 11915 11916 11917
          11918 11919 11920 11921 11922 11923
          11924 11925 11926 11927 11928 11929
          11930 11931 11932 11933 11934 11935
          11936 12643 3520 7470 12184 12185
          12186 12187 12188 12189 12190 12191
          12192 12193 12194 12195 12196 12197
          12198 12199 12200 12201 12202 12203
          12204 12205 12206 12207 12208 12209
          12210 12211 12212 12213 12214 12215
          12216 12217 12218 12219 12220 12221
          12222 12223 12224 12225 12226 12227
          12228 12229 12230 12231 12232 12233
          12234 12235 12236 12237 12238 12239
          12240 12241 12242 12243 12244 12245
          12246 12247 12248 12249 12250 12251
          12252 12253 12254 12255 12256 12257
          12258 12259 12260 12261 12262 12263
          12264 12265 12266 12267 12268 12269
          12270 12271 12272 12273 12274 13005
          12314 12543 12544 12545 12546 12547
          12548 12549 12550 12551 12552 12553
          12554 12555 12556 12557 12558 12559
          12560 12561 12562 12563 12564 12565
          12566 12567 12568 12569 12570 12571
          12572 12573 12574 12575 12576 12577
          12578 12579 12580 12581 12582 12583
          12584 12585 12586 12587 12588 12589
          12590 12591 12592 12593 12594 12595
          12596 12597 12598 12599 12600 12601
          12602 12603 12604 12605 12606 12607
          12608 12609 12610 12611 12612 12613
          12614 12615 12616 12617 12618 12619
          12620 12621 12622 12623 12624 12625
          12626 12627 12628 12629 12630 12631
          12632 12633 12634 12635 12636 12637
          12638 12639 12640 12641 12642 10868
          12894 12895 12896 12897 12898 12899
          12900 12901 12902 12903 12904 12905
          12906 12907 12908 12909 12910 12911
          12912 12913 12914 12915 12916 12917
          12918 12919 12920 12921 12922 12923
          12924 12925 12926 12927 12928 12929
          12930 12931 12932 12933 12934 12935
          12936 12937 12938 12939 12940 12941
          12942 12943 12944 12945 12946 12947
          12948 12949 12950 12951 12952 12953
          12954 12955 12956 12957 12958 12959
          12960 12961 12962 12963 12964 12965
          12966 12967 12968 12969 12970 12971
          12972 12973 12974 12975 12976 12977
          12978 12979 12980 12981 12982 12983
          12984 12985 12986 12987 12988 12989
          12990 12991 13416 12993 12994 12995
          12996 12997 12998 12999 13000 13001
          13002 13003 13004 14186 2239 3565
          7786 12644 13068 13313 13314 13315
          13316 13317 13318 13319 13320 13321
          13322 13323 13324 13325 13326 13327
          13328 13329 13330 13331 13332 13333
          13334 13335 13336 13337 13338 13339
          13340 13341 13342 13343 13344 13345
          13346 13347 13348 13349 13350 13351
          13352 13353 13354 13355 13356 13357
          13358 13359 13360 13361 13362 13363
          13364 13365 13366 13367 13368 13369
          13370 13371 13372 13373 13374 13375
          13376 13377 13378 13379 13380 13381
          13382 13383 13384 13385 13386 13387
          13388 13389 13390 13391 13392 13393
          13394 13395 13396 13397 13398 13399
          13400 13401 13402 13403 13404 13415
          13406 13407 13408 13409 13410 13411
          13412 13413 13414 818 917 13717
          13718 13719 13720 13721 13722 13723
          13724 13725 13726 13727 13728 13729
          13730 13731 13732 13733 13734 13735
          13736 13737 13738 13739 13740 13741
          13742 13743 13744 13745 13746 13747
          13748 13749 13750 13751 13752 13753
          13754 13755 13756 13757 13758 13759
          13760 13761 13762 13763 13764 13765
          13766 13767 13768 13769 13770 13771
          13772 13773 13774 13775 13776 13777
          13778 13779 13780 13781 13782 13783
          13784 13785 13786 13787 13788 13789
          13790 13791 13792 13793 13794 13795
          13796 13797 13798 13799 13800 13801
          13802 13803 13804 13805 13806 13807
          13808 13809 13810 14985 13812 13813
          13814 13815 13816 13817 13818 1225
          14077 14078 14079 14080 14081 14082
          14083 14084 14085 14086 14087 14088
          14089 14090 14091 14092 14093 14094
          14095 14096 14097 14098 14099 14100
          14101 14102 14103 14104 14105 14106
          14107 14108 14109 14110 14111 14112
          14113 14114 14115 14116 14117 14118
          14119 14120 14121 14122 14123 14124
          14125 14126 14127 14128 14129 14130
          14131 14132 14133 14134 14135 14136
          14137 14138 14139 14140 14141 14142
          14143 14144 14145 14146 14147 14148
          14149 14150 14151 14152 14153 14154
          14155 14156 14157 14158 14159 14160
          14161 14162 14163 14164 14165 14166
          14167 14168 14169 14170 14171 14172
          14173 14174 14175 14176 14177 14178
          14179 14180 14181 14182 14183 14184
          14185 1401 14469 14470 14471 14472
          14473 14474 14475 14476 14477 14478
          14479 14480 14481 14482 14483 14484
          14485 14486 14487 14488 14489 14490
          14491 14492 14493 14494 14495 14496
          14497 14498 14499 14500 14501 14502
          14503 14504 14505 14506 14507 14508
          14509 14510 14511 14512 14513 14514
          14515 14516 14517 14518 14519 14520
          14521 14522 14523 14524 14525 14526
          14527 14528 14529 14530 14531 14532
          14533 14534 14535 14536 14537 14538
          14539 14540 14541 14542 14543 14544
          14545 14579 14547 14548 14549 14550
          14551 14552 14553 14554 14555 14556
          14557 14558 14559 14560 14561 14562
          14563 14564 14565 14566 14567 14568
          14569 14570 14571 14572 14573 14574
          14575 14576 14577 14578 126 13438
          12992 14882 14883 14884 14885 14886
          14887 14888 14889 14890 14891 14892
          14893 14894 14895 14896 14897 14898
          14899 14900 14901 14902 14903 14904
          14905 14906 14907 14908 14909 14910
          14911 14912 14913 14914 14915 14916
          14917 14918 14919 14920 14921 14922
          14923 14924 14925 14926 14927 14928
          14929 14930 14931 14932 14933 14934
          14935 14936 14937 14938 14939 14940
          14941 14942 14943 14944 14945 14946
          14947 14948 14949 14950 14951 14952
          14953 14954 14955 14956 14957 14958
          14959 14960 14961 14962 14963 14964
          14965 14966 14967 14968 14969 14970
          14971 14972 14973 14974 14975 14976
          14977 14978 14979 14980 14981 14982
          14983 14984 1232 709 15110 9881
          4 3 7 14 15 16
          17 24 25 26 30 31
          35 36 37 41 50 51
          52 53 54 59 60 61
          62 63 69 70 71 72