<?xml version="1.0"?>
<VTKFile type="UnstructuredGrid" version="0.1" byte_order="LittleEndian" header_type="UInt32" compressor="vtkZLibDataCompressor">
  <UnstructuredGrid>
    <Piece NumberOfPoints="790" NumberOfCells="790">
      <PointData>
        <DataArray type="Int32" Name="id" format="ascii" RangeMin="1" RangeMax="790">
          8 6 5 11 12 13
          21 22 23 32 33 34
          44 45 46 47 48 49
          57 58 67 68 78 79
          80 81 82 83 94 95
          96 97 98 99 113 114
          115 116 117 118 138 139
          140 141 142 143 144 145
          160 161 162 163 164 165
          166 167 168 189 190 191
          192 193 194 195 196 229
          230 231 232 233 234 235
          236 237 238 239 240 241
          242 243 274 275 276 277
          278 279 280 281 282 283
          284 285 286 287 313 314
          315 316 317 318 319 320
          321 322 323 324 371 372
          373 374 375 376 377 378
          379 380 381 382 383 384
          385 386 447 448 449 450
          451 452 453 454 455 456
          457 458 459 460 461 462
          463 464 465 466 467 510
          511 512 513 514 515 516
          517 518 519 520 521 522
          523 524 525 526 527 528
          529 530 531 580 581 582
          583 584 585 586 587 588
          589 590 591 592 593 594
          595 596 597 598 599 600
          601 602 603 604 605 606
          607 608 609 610 679 680
          681 682 683 684 685 686
          687 688 689 690 691 692
          693 694 695 696 697 698
          699 700 701 702 703 704
          705 9 4 3 7 14
          15 16 17 24 25 26
          30 31 35 36 37 41
          50 51 52 53 54 59
          60 61 62 63 69 70
          71 72 84 85 86 87
          88 89 100 101 102 103
          104 105 106 107 119 120
          121 122 123 124 125 126
          127 128 129 130 146 147
          148 149 150 151 169 170
          171 172 173 174 175 176
          177 178 179 197 198 199
          200 201 202 203 204 205
          206 207 208 209 210 211
          212 213 214 215 216 244
          245 246 247 248 249 250
          251 252 253 254 255 256
          257 258 259 260 261 288
          289 290 291 292 293 294
          295 296 297 298 299 300
          301 325 326 327 328 329
          330 331 332 333 334 335
          336 337 338 339 340 341
          342 343 344 345 346 347
          387 388 389 390 391 392
          393 394 395 396 397 398
          399 400 401 402 403 404
          405 406 407 408 409 410
          411 412 413 414 415 416
          417 418 419 420 421 422
          423 468 469 470 471 472
          473 474 475 476 477 478
          479 480 481 482 483 484
          485 486 487 488 489 490
          491 492 493 494 495 496
          532 533 534 535 536 537
          538 539 540 541 542 543
          544 545 546 547 548 549
          550 551 552 553 554 555
          556 557 558 559 611 612
          613 614 615 616 617 618
          619 620 621 622 623 624
          625 626 627 628 629 630
          631 632 633 634 635 636
          637 638 639 640 641 642
          643 644 645 706 707 708
          709 710 711 712 713 714
          715 716 717 718 719 720
          721 722 723 724 725 726
          727 728 729 730 731 732
          733 734 735 736 737 738
          739 740 741 742 743 744
          745 746 747 748 749 750
          751 752 753 754 10 1
          18 19 27 28 38 39
          42 55 56 64 73 74
          75 76 77 90 108 109
          110 111 112 131 132 133
          152 153 154 155 156 157
          180 181 182 183 184 185
          217 218 219 220 221 222
          223 224 262 263 264 265
          266 267 268 302 303 304
          305 306 307 308 348 349
          350 351 352 353 354 355
          356 357 358 359 360 361
          362 363 424 425 426 427
          428 429 430 431 432 433
          434 435 436 437 497 498
          499 500 501 502 503 560
          561 562 563 564 565 566
          567 568 569 570 571 572
          573 574 646 647 648 649
          650 651 652 653 654 655
          656 657 658 659 660 661
          662 663 664 665 666 755
          756 757 758 759 760 761
          762 763 764 765 766 767
          768 769 770 771 772 773
          774 2 20 29 40 43
          65 66 91 92 93 134
          135 136 137 158 159 186
          187 188 225 226 227 228
          269 270 271 272 273 309
          310 311 312 364 365 366
          367 368 369 370 438 439
          440 441 442 443 444 445
          446 504 505 506 507 508
          509 575 576 577 578 579
          667 668 669 670 671 672
          673 674 675 676 677 678
          775 776 777 778 779 780
          781 782 783 784 785 786
          787 788 789 790
        </DataArray>
        <DataArray type="Int32" Name="type" format="ascii" RangeMin="1" RangeMax="1">
          1 1 1 1 1 1
          1 1 1 1 1 1
          1 1 1 1 1 1
          1 1 1 1 1 1
          1 1 1 1 1 1
          1 1 1 1 1 1
          1 1 1 1 1 1
          1 1 1 1 1 1
          1 1 1 1 1 1
          1 1 1 1 1 1
          1 1 1 1 1 1
          1 1 1 1 1 1
          1 1 1 1 1 1
          1 1 1 1 1 1
          1 1 1 1 1 1
          1 1 1 1 1 1
          1 1 1 1 1 1
          1 1 1 1 1 1
          1 1 1 1 1 1
          1 1 1 1 1 1
          1 1 1 1 1 1
          1 1 1 1 1 1
          1 1 1 1 1 1
          1 1 1 1 1 1
          1 1 1 1 1 1
          1 1 1 1 1 1
          1 1 1 1 1 1
          1 1 1 1 1 1
          1 1 1 1 1 1
          1 1 1 1 1 1
          1 1 1 1 1 1
          1 1 1 1 1 1
          1 1 1 1 1 1
          1 1 1 1 1 1
          1 1 1 1 1 1
          1 1 1 1 1 1
          1 1 1 1 1 1
          1 1 1 1 1 1
          1 1 1 1 1 1
          1 1 1 1 1 1
          1 1 1 1 1 1
          1 1 1 1 1 1
          1 1 1 1 1 1
          1 1 1 1 1 1
          1 1 1 1 1 1
          1 1 1 1 1 1
          1 1 1 1 1 1
          1 1 1 1 1 1
          1 1 1 1 1 1
          1 1 1 1 1 1
          1 1 1 1 1 1
          1 1 1 1 1 1
          1 1 1 1 1 1
          1 1 1 1 1 1
          1 1 1 1 1 1
          1 1 1 1 1 1
          1 1 1 1 1 1
          1 1 1 1 1 1
          1 1 1 1 1 1
          1 1 1 1 1 1
          1 1 1 1 1 1
          1 1 1 1 1 1
          1 1 1 1 1 1
          1 1 1 1 1 1
          1 1 1 1 1 1
          1 1 1 1 1 1
          1 1 1 1 1 1
          1 1 1 1 1 1
          1 1 1 1 1 1
          1 1 1 1 1 1
          1 1 1 1 1 1
          1 1 1 1 1 1
          1 1 1 1 1 1
          1 1 1 1 1 1
          1 1 1 1 1 1
          1 1 1 1 1 1
          1 1 1 1 1 1
          1 1 1 1 1 1
          1 1 1 1 1 1
          1 1 1 1 1 1
          1 1 1 1 1 1
          1 1 1 1 1 1
          1 1 1 1 1 1
          1 1 1 1 1 1
          1 1 1 1 1 1
          1 1 1 1 1 1
          1 1 1 1 1 1
          1 1 1 1 1 1
          1 1 1 1 1 1
          1 1 1 1 1 1
          1 1 1 1 1 1
          1 1 1 1 1 1
          1 1 1 1 1 1
          1 1 1 1 1 1
          1 1 1 1 1 1
          1 1 1 1 1 1
          1 1 1 1 1 1
          1 1 1 1 1 1
          1 1 1 1 1 1
          1 1 1 1 1 1
          1 1 1 1 1 1
          1 1 1 1 1 1
          1 1 1 1 1 1
          1 1 1 1 1 1
          1 1 1 1 1 1
          1 1 1 1 1 1
          1 1 1 1 1 1
          1 1 1 1 1 1
          1 1 1 1 1 1
          1 1 1 1 1 1
          1 1 1 1 1 1
          1 1 1 1 1 1
          1 1 1 1 1 1
          1 1 1 1 1 1
          1 1 1 1 1 1
          1 1 1 1 1 1
          1 1 1 1 1 1
          1 1 1 1 1 1
          1 1 1 1 1 1
          1 1 1 1 1 1
          1 1 1 1 1 1
          1 1 1 1 1 1
          1 1 1 1 1 1
          1 1 1 1 1 1
          1 1 1 1 1 1
          1 1 1 1 1 1
          1 1 1 1 1 1
          1 1 1 1 1 1
          1 1 1 1 1 1
          1 1 1 1 1 1
          1 1 1 1 1 1
          1 1 1 1
        </DataArray>
        <DataArray type="Float64" Name="diameter" format="ascii" RangeMin="1.0049377683e-06" RangeMax="1.3599970007e-06">
          1.2011209474e-06 1.1577596452e-06 1.1025654863e-06 1.270814719e-06 1.1077496369e-06 1.2951094098e-06
          1.2579010398e-06 1.3435970139e-06 1.126716996e-06 1.2400661888e-06 1.0656553831e-06 1.2453328953e-06
          1.2319805009e-06 1.2238166613e-06 1.176587847e-06 1.309485287e-06 1.2370315809e-06 1.2653330886e-06
          1.0886445071e-06 1.1390494826e-06 1.2334922287e-06 1.1343914413e-06 1.0500785592e-06 1.1608437525e-06
          1.3585113762e-06 1.0450082012e-06 1.2523560574e-06 1.2595278952e-06 1.1247749145e-06 1.2233699405e-06
          1.1701171867e-06 1.1223572241e-06 1.2048310223e-06 1.2567900278e-06 1.2963369424e-06 1.2592697865e-06
          1.1308369108e-06 1.2659665699e-06 1.2328149667e-06 1.0767927134e-06 1.1233721417e-06 1.1484996536e-06
          1.1346160253e-06 1.2478120221e-06 1.1558400542e-06 1.1350779641e-06 1.2914663371e-06 1.0970714706e-06
          1.318716742e-06 1.1443841585e-06 1.2145346853e-06 1.1967748589e-06 1.3446897827e-06 1.3448125365e-06
          1.0780920701e-06 1.1676933466e-06 1.3039592637e-06 1.1925929915e-06 1.1736687136e-06 1.0613597862e-06
          1.2831305605e-06 1.2597131335e-06 1.2507481817e-06 1.2215633864e-06 1.209866138e-06 1.2058112873e-06
          1.1384256796e-06 1.0977350538e-06 1.2592272193e-06 1.3326016162e-06 1.2139530723e-06 1.2332304962e-06
          1.1736784615e-06 1.2317176364e-06 1.2467379618e-06 1.1781059411e-06 1.2844223756e-06 1.1802954723e-06
          1.1923841689e-06 1.2678526836e-06 1.2249686688e-06 1.0767375688e-06 1.2089446453e-06 1.1816980646e-06
          1.143512562e-06 1.3487308293e-06 1.0409191487e-06 1.2016841607e-06 1.1791126214e-06 1.1547740718e-06
          1.1895388346e-06 1.108891828e-06 1.0660048675e-06 1.0269161609e-06 1.1209959629e-06 1.3152300879e-06
          1.2293806828e-06 1.3101759114e-06 1.345073488e-06 1.3407685756e-06 1.1167227963e-06 1.0521757724e-06
          1.221790632e-06 1.0795970288e-06 1.1419760413e-06 1.2139747306e-06 1.3165550297e-06 1.2859546805e-06
          1.1358412638e-06 1.2596283652e-06 1.194560265e-06 1.2187052549e-06 1.2422076888e-06 1.3500550775e-06
          1.329514536e-06 1.2928421443e-06 1.1102645852e-06 1.0774737527e-06 1.2607103577e-06 1.2732671042e-06
          1.1196226928e-06 1.0985564899e-06 1.3511176787e-06 1.3139611448e-06 1.2667921945e-06 1.122922968e-06
          1.2346429816e-06 1.1249875131e-06 1.2948602168e-06 1.1976155408e-06 1.2433560848e-06 1.303885501e-06
          1.2831330725e-06 1.267744949e-06 1.1758223648e-06 1.2621975072e-06 1.3252751444e-06 1.2859919787e-06
          1.1844071557e-06 1.2099828495e-06 1.1163883329e-06 1.2492849373e-06 1.1768942904e-06 1.2713399928e-06
          1.1786230167e-06 1.1131945874e-06 1.1694804278e-06 1.1286615551e-06 1.2876579891e-06 1.1085186062e-06
          1.1322958829e-06 1.1261111184e-06 1.2010963374e-06 1.1537517662e-06 1.2287799286e-06 1.2971126351e-06
          1.1724065614e-06 1.1320121074e-06 1.2042894361e-06 1.1733022665e-06 1.1323673293e-06 1.1897303022e-06
          1.2162253854e-06 1.1799210917e-06 1.2726760249e-06 1.1367058716e-06 1.2322739843e-06 1.2238862074e-06
          1.1176558717e-06 1.1828976736e-06 1.1685780145e-06 1.0903184125e-06 1.1857631351e-06 1.2037579159e-06
          1.174576511e-06 1.1736161787e-06 1.1701639125e-06 1.1717922993e-06 1.0884949103e-06 1.1650355841e-06
          1.1649385857e-06 1.1411289022e-06 1.106716733e-06 1.0755264959e-06 1.0863650294e-06 1.1497237485e-06
          1.1351316703e-06 1.2071496872e-06 1.1114832167e-06 1.1618919448e-06 1.1611311401e-06 1.1322955328e-06
          1.0834851476e-06 1.0879248439e-06 1.1633993501e-06 1.1629246342e-06 1.0538513233e-06 1.0721490511e-06
          1.0932142593e-06 1.136267846e-06 1.0698118467e-06 1.1693827907e-06 1.1182216779e-06 1.0363031676e-06
          1.1050606839e-06 1.1096693976e-06 1.0511558349e-06 1.1147997181e-06 1.0474678501e-06 1.168208609e-06
          1.0189199375e-06 1.1254465349e-06 1.1850169419e-06 1.1436424887e-06 1.1693276018e-06 1.1005374992e-06
          1.1672934325e-06 1.1046932897e-06 1.1638983336e-06 1.1065875228e-06 1.041599359e-06 1.048242782e-06
          1.0731891241e-06 1.2639026256e-06 1.1418069488e-06 1.2487002646e-06 1.2195212725e-06 1.1179721141e-06
          1.0938621836e-06 1.1923116312e-06 1.3375037377e-06 1.2351566106e-06 1.3399993198e-06 1.1640481989e-06
          1.1643902732e-06 1.0537603961e-06 1.1190596836e-06 1.0656137451e-06 1.3336905711e-06 1.3405657506e-06
          1.3417226821e-06 1.1574580214e-06 1.3376306648e-06 1.2782078528e-06 1.1269673626e-06 1.3158389007e-06
          1.141138783e-06 1.2975074458e-06 1.250080709e-06 1.0502531677e-06 1.2095654788e-06 1.194403991e-06
          1.2599946063e-06 1.1813594398e-06 1.0750241401e-06 1.2490616586e-06 1.2820737395e-06 1.2493497045e-06
          1.3173683985e-06 1.300191168e-06 1.2259744225e-06 1.0960923898e-06 1.1215628332e-06 1.1846438724e-06
          1.3553183518e-06 1.1574226817e-06 1.271891472e-06 1.3389432151e-06 1.1352657876e-06 1.0566400655e-06
          1.1280638674e-06 1.074245353e-06 1.3394971512e-06 1.2893177002e-06 1.236534589e-06 1.0563749946e-06
          1.3459341956e-06 1.1179512759e-06 1.1460622495e-06 1.3041421699e-06 1.1302035586e-06 1.1941644165e-06
          1.0694445547e-06 1.2431973857e-06 1.2635840481e-06 1.2087378016e-06 1.3283307934e-06 1.1360616569e-06
          1.2881092491e-06 1.3210284317e-06 1.1230169274e-06 1.2246139975e-06 1.0549892533e-06 1.2408849485e-06
          1.3144048384e-06 1.0903426593e-06 1.34260303e-06 1.3475407142e-06 1.2562053241e-06 1.3023021842e-06
          1.1021089618e-06 1.3044606227e-06 1.3254136609e-06 1.1761808019e-06 1.1323323949e-06 1.2777964696e-06
          1.1640663989e-06 1.28581045e-06 1.2304534658e-06 1.2157236469e-06 1.0688513629e-06 1.1133780852e-06
          1.2566408904e-06 1.3437924416e-06 1.2970546727e-06 1.0049377683e-06 1.259123782e-06 1.2193349743e-06
          1.1627474191e-06 1.2925178222e-06 1.1238951964e-06 1.1368328806e-06 1.0085196423e-06 1.2276346952e-06
          1.1955387402e-06 1.1385455957e-06 1.1716782387e-06 1.1737523364e-06 1.2469468278e-06 1.0642972262e-06
          1.1249721834e-06 1.0585490164e-06 1.2774568609e-06 1.2295329066e-06 1.1632369839e-06 1.076531802e-06
          1.1198859348e-06 1.1203219358e-06 1.2437678249e-06 1.2169119047e-06 1.2680480116e-06 1.1089777287e-06
          1.1565246264e-06 1.2527906629e-06 1.2524719432e-06 1.2195439845e-06 1.2322681402e-06 1.2394519503e-06
          1.1557887973e-06 1.0802295897e-06 1.081027792e-06 1.1973337164e-06 1.1459596397e-06 1.1170640491e-06
          1.3520281859e-06 1.164123171e-06 1.0621806007e-06 1.25288812e-06 1.139582018e-06 1.0844732958e-06
          1.2170271907e-06 1.1648850208e-06 1.325321727e-06 1.1163857524e-06 1.246269548e-06 1.2410540308e-06
          1.149886331e-06 1.1558876918e-06 1.1559271139e-06 1.3497569599e-06 1.3494176016e-06 1.3584960873e-06
          1.085031781e-06 1.2965661619e-06 1.3303583069e-06 1.2273967252e-06 1.1591389881e-06 1.2743358108e-06
          1.0540035156e-06 1.2367184818e-06 1.0370452405e-06 1.2290483695e-06 1.3249804835e-06 1.2848874948e-06
          1.2379606269e-06 1.3460319609e-06 1.0605235085e-06 1.3219036947e-06 1.1383675552e-06 1.2884474669e-06
          1.1293090298e-06 1.2399519001e-06 1.2175006805e-06 1.3427718035e-06 1.3415489973e-06 1.317110018e-06
          1.1109511174e-06 1.1541592517e-06 1.3227996834e-06 1.0737659896e-06 1.1104813918e-06 1.3509670461e-06
          1.2972985455e-06 1.3336837052e-06 1.3546332709e-06 1.0631149168e-06 1.2798587513e-06 1.2955364506e-06
          1.2727567753e-06 1.2583750362e-06 1.2668170713e-06 1.296161433e-06 1.240022968e-06 1.2943743807e-06
          1.3380294827e-06 1.2887242759e-06 1.1779985081e-06 1.2768414011e-06 1.2665562375e-06 1.3210824811e-06
          1.1901649392e-06 1.2314463186e-06 1.3326341979e-06 1.3380279805e-06 1.2018729825e-06 1.1250593752e-06
          1.2788018197e-06 1.2060559601e-06 1.2397195454e-06 1.2683238931e-06 1.2554029944e-06 1.2651023524e-06
          1.2394649506e-06 1.2896330002e-06 1.2350991189e-06 1.3599970007e-06 1.3242676294e-06 1.2708851911e-06
          1.3253373271e-06 1.1750307822e-06 1.2917852268e-06 1.2157999668e-06 1.290207591e-06 1.2692058378e-06
          1.189224215e-06 1.1641211966e-06 1.1978569431e-06 1.1478439607e-06 1.1142929428e-06 1.2951521333e-06
          1.1863517306e-06 1.2794441023e-06 1.1945271761e-06 1.1820405216e-06 1.2628457173e-06 1.2808705086e-06
          1.2640312044e-06 1.1622742672e-06 1.2028354569e-06 1.2621708014e-06 1.2737110831e-06 1.098798527e-06
          1.200613521e-06 1.2304023124e-06 1.2436609967e-06 1.21924516e-06 1.0917746696e-06 1.1865436572e-06
          1.1216621718e-06 1.085715217e-06 1.1256275248e-06 1.1769487442e-06 1.1460403057e-06 1.236865758e-06
          1.1366420489e-06 1.0937044214e-06 1.2211339995e-06 1.1034496491e-06 1.1405639051e-06 1.1618616108e-06
          1.120826405e-06 1.1960553558e-06 1.21950005e-06 1.1494241443e-06 1.1789250873e-06 1.1940764336e-06
          1.1176992743e-06 1.1835732978e-06 1.1790897401e-06 1.1524792504e-06 1.104267302e-06 1.0975626847e-06
          1.2066875998e-06 1.1985160043e-06 1.1426365942e-06 1.1021531462e-06 1.1128492143e-06 1.2105577414e-06
          1.1106089746e-06 1.2081172824e-06 1.1079127817e-06 1.1256905694e-06 1.145681853e-06 1.1228101008e-06
          1.1522814701e-06 1.0219471518e-06 1.0354461543e-06 1.1300087019e-06 1.1015239524e-06 1.1357699925e-06
          1.1055674474e-06 1.1239906628e-06 1.0657660986e-06 1.1620485191e-06 1.1671410712e-06 1.0420210462e-06
          1.0739806468e-06 1.1209353552e-06 1.1299853782e-06 1.1530441108e-06 1.1434349509e-06 1.0255662223e-06
          1.1201928633e-06 1.1473821395e-06 1.066053338e-06 1.0950431683e-06 1.1516167077e-06 1.095732728e-06
          1.0820768934e-06 1.1267855607e-06 1.1547161192e-06 1.1258169907e-06 1.0632611955e-06 1.1176203536e-06
          1.142232935e-06 1.0727903195e-06 1.0374424328e-06 1.0662636577e-06 1.1032531555e-06 1.0642055536e-06
          1.1637377677e-06 1.1546814918e-06 1.103782944e-06 1.0728541357e-06 1.1365955799e-06 1.0823044891e-06
          1.1104432448e-06 1.057652474e-06 1.0952944826e-06 1.0303099377e-06 1.163656643e-06 1.3264103119e-06
          1.2802316832e-06 1.2109396021e-06 1.2548479014e-06 1.2897214437e-06 1.2024887446e-06 1.1777499757e-06
          1.1665386348e-06 1.3327754706e-06 1.1811527393e-06 1.2443076838e-06 1.1868325028e-06 1.1637724361e-06
          1.3561539456e-06 1.2816141859e-06 1.1641822026e-06 1.1554639952e-06 1.3382146426e-06 1.0967239979e-06
          1.3324080797e-06 1.1033659263e-06 1.0724818557e-06 1.1369694821e-06 1.2319240157e-06 1.2522175794e-06
          1.1333322658e-06 1.2397119537e-06 1.3217143001e-06 1.1263526486e-06 1.2460880531e-06 1.2834011714e-06
          1.0983156634e-06 1.3579976522e-06 1.1477737556e-06 1.1219876416e-06 1.3427020065e-06 1.0281155454e-06
          1.3396385934e-06 1.12941074e-06 1.3526290256e-06 1.2899508451e-06 1.3321695855e-06 1.1447657399e-06
          1.0796910307e-06 1.1745946085e-06 1.2632589821e-06 1.1781649664e-06 1.2064352572e-06 1.1146788474e-06
          1.3546904644e-06 1.1441015325e-06 1.2465962375e-06 1.2887434503e-06 1.1621429822e-06 1.0787379347e-06
          1.1811441922e-06 1.1539041023e-06 1.2727075209e-06 1.1238992149e-06 1.3402494045e-06 1.154458616e-06
          1.1125947288e-06 1.1516466541e-06 1.1757602021e-06 1.1627234241e-06 1.3501790303e-06 1.1671937058e-06
          1.1150639273e-06 1.1730452445e-06 1.0170441898e-06 1.1763113796e-06 1.1604213212e-06 1.3396128419e-06
          1.2557146167e-06 1.1960931541e-06 1.2438485084e-06 1.3304556012e-06 1.0692705234e-06 1.3581444761e-06
          1.3010813615e-06 1.1427722121e-06 1.2926094703e-06 1.2985292846e-06 1.3139677608e-06 1.3253591465e-06
          1.3548024698e-06 1.3424886477e-06 1.0973961714e-06 1.3458084572e-06 1.2123188251e-06 1.2387618561e-06
          1.1485070962e-06 1.3310820493e-06 1.1963942206e-06 1.2835937857e-06 1.2805317749e-06 1.1974516475e-06
          1.1670004155e-06 1.1582927681e-06 1.2553640401e-06 1.2719065307e-06 1.2741315169e-06 1.2032841911e-06
          1.2598638854e-06 1.1290732691e-06 1.1979073382e-06 1.2460489724e-06 1.1600525015e-06 1.2817197187e-06
          1.1118266031e-06 1.1779518228e-06 1.191310089e-06 1.2070461101e-06 1.1384952853e-06 1.2058702898e-06
          1.2135855685e-06 1.1477007268e-06 1.1487477352e-06 1.2230613002e-06 1.196242676e-06 1.1928861974e-06
          1.1976521659e-06 1.1644920883e-06 1.27772366e-06 1.1920281339e-06 1.2162615847e-06 1.1499571424e-06
          1.1122795212e-06 1.1726652282e-06 1.1970968841e-06 1.130898118e-06 1.185358728e-06 1.0689810206e-06
          1.0988869287e-06 1.1548798601e-06 1.1399633567e-06 1.0242740786e-06 1.0823045805e-06 1.1493482803e-06
          1.1312140639e-06 1.0620213048e-06 1.0950871281e-06 1.075222767e-06 1.0501058887e-06 1.0128901818e-06
          1.0411224325e-06 1.1497350169e-06 1.0571311441e-06 1.0491746949e-06 1.0696149577e-06 1.1182388303e-06
          1.0566298727e-06 1.2270111808e-06 1.2628650406e-06 1.1722066317e-06 1.1295330848e-06 1.0966014756e-06
          1.3104146099e-06 1.2104623741e-06 1.211659188e-06 1.1125198119e-06 1.1832168846e-06 1.2114166337e-06
          1.1847858933e-06 1.2917200665e-06 1.1675006841e-06 1.0513729446e-06 1.1943534748e-06 1.0976132251e-06
          1.1587078174e-06 1.0959193432e-06 1.3180365222e-06 1.3298794214e-06 1.3239623865e-06 1.0964872825e-06
          1.3516346502e-06 1.3564212385e-06 1.1295927665e-06 1.3260247025e-06 1.2594454966e-06 1.0936812016e-06
          1.2724676833e-06 1.2367325011e-06 1.1887713131e-06 1.117371148e-06 1.0808010151e-06 1.1613796377e-06
          1.1356644324e-06 1.095742666e-06 1.1598974033e-06 1.2458015126e-06 1.1341793126e-06 1.0803114639e-06
          1.1431663597e-06 1.1334618392e-06 1.0619600253e-06 1.3046527717e-06 1.3566086315e-06 1.1309585876e-06
          1.3051050966e-06 1.2075728693e-06 1.3101618143e-06 1.3548607164e-06 1.2846742093e-06 1.2593165318e-06
          1.2828641706e-06 1.1056433225e-06 1.2107781781e-06 1.1591653397e-06 1.3208823341e-06 1.1694577185e-06
          1.113456456e-06 1.1397970762e-06 1.1695775489e-06 1.1144243114e-06 1.1448111364e-06 1.1912775319e-06
          1.0695066263e-06 1.1597307539e-06 1.192573535e-06 1.1264700516e-06 1.1705570222e-06 1.1309348368e-06
          1.0798772478e-06 1.0940785164e-06 1.1743708261e-06 1.0801802558e-06 1.0865845791e-06 1.1389126264e-06
          1.1721640503e-06 1.1589892643e-06 1.0924700049e-06 1.1275053948e-06 1.0533607623e-06 1.1077472723e-06
          1.0237636126e-06 1.1106105128e-06 1.1153495271e-06 1.1397190579e-06
        </DataArray>
      </PointData>
      <CellData>
      </CellData>
      <Points>
        <DataArray type="Float32" Name="Points" NumberOfComponents="3" format="ascii" RangeMin="8.3277894011e-05" RangeMax="0.00025662807245">
          5.2301336837e-05 4.8777030315e-05 5.1208891819e-05 2.841260175e-05 6.4063206082e-05 5.1733073633e-05
          4.2232033593e-05 7.4465897342e-05 5.2268405852e-05 5.2331401093e-05 4.6170996939e-05 4.7718556743e-05
          3.0135206543e-05 6.5283551521e-05 4.8697376769e-05 4.2938456318e-05 7.5113792263e-05 5.0158483646e-05
          2.8387392376e-05 6.2912411522e-05 5.2208899433e-05 5.3788546211e-05 4.4255997636e-05 4.9647394917e-05
          3.9928938349e-05 7.4535790191e-05 4.9197438784e-05 5.1314294979e-05 4.7262365115e-05 4.8662506742e-05
          4.0498402086e-05 7.5803225627e-05 5.017017611e-05 3.0536397389e-05 6.0666105128e-05 4.8569254432e-05
          3.0773146136e-05 6.3151688664e-05 4.8271427659e-05 5.3236988606e-05 4.5242515625e-05 4.8395260819e-05
          4.3511601689e-05 7.5854099123e-05 4.7911908041e-05 2.916980884e-05 6.3631414378e-05 5.2211053116e-05
          5.2224659157e-05 4.6637775085e-05 5.2384213632e-05 4.2487092287e-05 7.3757837527e-05 4.889844422e-05
          5.3896805184e-05 4.7255362006e-05 5.1567862101e-05 3.1059647881e-05 6.2409337261e-05 4.9034664698e-05
          4.2708670662e-05 7.2756345617e-05 5.0872429711e-05 4.1949671868e-05 7.5512900366e-05 4.945947876e-05
          5.2078965382e-05 4.7532161261e-05 5.1549875934e-05 2.8963731893e-05 6.4349689637e-05 4.7473313316e-05
          3.1105631933e-05 6.4578685851e-05 4.9743008276e-05 4.1301460442e-05 7.5563155406e-05 5.0319544243e-05
          2.8793547244e-05 6.1745275161e-05 5.1001316024e-05 5.4642965551e-05 4.5397999202e-05 5.0991380704e-05
          5.2188177506e-05 4.45777805e-05 4.7512654419e-05 4.3017214921e-05 7.4498209869e-05 4.8320132919e-05
          5.5290700402e-05 4.7599729442e-05 5.042304474e-05 4.1199338739e-05 7.7015742136e-05 4.8901838454e-05
          3.0742143281e-05 6.1700528022e-05 5.2431027143e-05 5.207661161e-05 4.6153323638e-05 4.9733178457e-05
          5.1152226661e-05 4.6524917707e-05 4.971661474e-05 3.1487099477e-05 6.1440128775e-05 4.9701258831e-05
          2.9420985811e-05 6.2134931795e-05 4.8494744988e-05 4.0561324568e-05 7.292220107e-05 4.9288861192e-05
          3.0116128983e-05 6.1296508648e-05 5.1278970204e-05 4.2183695768e-05 7.4338575359e-05 4.9796624808e-05
          5.2894945838e-05 4.8780042562e-05 4.9140024203e-05 4.0933096898e-05 7.3246192187e-05 5.0278045819e-05
          3.0428231184e-05 6.4880478021e-05 5.0910362916e-05 5.2307008445e-05 4.4349315431e-05 5.0870152336e-05
          4.0696970245e-05 7.4971627328e-05 5.1048176829e-05 5.4515236116e-05 4.7317367716e-05 4.8687081289e-05
          4.340941814e-05 7.4070929259e-05 5.1138817071e-05 2.8953742003e-05 6.2018087192e-05 4.9455669796e-05
          2.8760538044e-05 6.3492989284e-05 4.958919817e-05 4.0751448978e-05 7.4977826444e-05 4.7040848585e-05
          5.3360425227e-05 4.5882392442e-05 5.0475540775e-05 5.0472681323e-05 4.6827823098e-05 5.0591686886e-05
          2.8365770049e-05 6.4856372774e-05 4.9482227041e-05 2.9718863516e-05 6.3022111135e-05 5.0215454394e-05
          4.1440169298e-05 7.6327101851e-05 5.1703675126e-05 4.1265200707e-05 7.6357966464e-05 4.8528407206e-05
          3.0622155464e-05 6.3096347731e-05 5.2548904932e-05 4.2766958359e-05 7.6583310147e-05 5.0394959544e-05
          2.904984467e-05 6.2799001171e-05 5.0515725889e-05 4.3880063458e-05 7.4921648775e-05 4.9890517403e-05
          5.3054158343e-05 4.6936602303e-05 5.0757818826e-05 5.4199797887e-05 4.6364912123e-05 5.0401653425e-05
          5.3031781135e-05 4.4625703595e-05 4.8872301704e-05 4.2521449359e-05 7.3030780186e-05 4.8089517804e-05
          5.4238389566e-05 4.5390890591e-05 4.91545361e-05 5.3645773733e-05 4.6130433475e-05 4.7856086894e-05
          5.2727245929e-05 4.7082379751e-05 4.7446923418e-05 3.0420982512e-05 6.2329330831e-05 4.9780930567e-05
          2.9566754165e-05 6.2682855059e-05 4.9151225539e-05 2.920163206e-05 6.508113438e-05 5.0878872571e-05
          4.2008508899e-05 7.3675902968e-05 5.053600762e-05 4.1226943722e-05 7.2100221587e-05 4.9567381211e-05
          5.1785984397e-05 4.5040847908e-05 5.0201433623e-05 5.2239640354e-05 4.7026413085e-05 4.9274625781e-05
          3.0215720471e-05 6.1889862991e-05 4.8408990551e-05 2.8714413929e-05 6.2639584939e-05 4.8106285249e-05
          4.1661562136e-05 7.2413669841e-05 5.133423474e-05 3.0576582503e-05 6.1118160374e-05 5.0073329476e-05
          4.0843646275e-05 7.4316420068e-05 5.181605593e-05 5.3801275499e-05 4.7067795094e-05 4.9584941735e-05
          3.0326797059e-05 6.4084277255e-05 4.9377678806e-05 5.3575440688e-05 4.5694148866e-05 4.9625319662e-05
          5.3571857279e-05 4.7705605539e-05 5.0668299082e-05 3.203801316e-05 6.2128936406e-05 5.0095015467e-05
          4.1744075133e-05 7.5417126936e-05 4.8342535592e-05 2.8878990634e-05 6.0962156567e-05 5.0182890845e-05
          3.0715717003e-05 6.2845647335e-05 5.0758146244e-05 4.2808725993e-05 7.5037562056e-05 5.1167899073e-05
          5.3063318774e-05 4.7803849156e-05 4.9658123316e-05 3.0037155739e-05 6.3636420236e-05 5.0971018936e-05
          5.2374536608e-05 4.528637146e-05 5.1835198974e-05 4.0775452362e-05 7.5472446042e-05 5.2215349569e-05
          2.834285624e-05 6.2610190071e-05 5.1207782235e-05 2.7874713851e-05 6.3871724706e-05 4.9088670494e-05
          5.2131217672e-05 4.7462679504e-05 5.0774247939e-05 4.192185952e-05 7.3698276537e-05 5.2101670008e-05
          5.3737956478e-05 4.3648764404e-05 5.0943766837e-05 4.0569848352e-05 7.4283881986e-05 4.8562524171e-05
          4.1084858822e-05 7.4599702202e-05 4.9696234782e-05 5.2854680689e-05 4.6104276407e-05 5.1549555792e-05
          5.0868209655e-05 4.6636385377e-05 5.1441031246e-05 3.1927782402e-05 6.3647647039e-05 5.1057188102e-05
          5.0876635214e-05 4.5298809709e-05 4.8460024118e-05 4.3668864237e-05 7.313239621e-05 5.0001079217e-05
          5.199698353e-05 4.7833418648e-05 4.9107617087e-05 4.2251806008e-05 7.6334617916e-05 4.817235822e-05
          2.7679641789e-05 6.3744657382e-05 5.1174993132e-05 4.3876305426e-05 7.5294301496e-05 5.1146471378e-05
          3.0693063309e-05 6.4392166678e-05 4.8517147661e-05 4.2470914195e-05 7.602351252e-05 5.1179333241e-05
          5.4643925978e-05 4.5922541176e-05 5.2382529248e-05 5.481451808e-05 4.6252949687e-05 4.946705667e-05
          4.0902905312e-05 7.5485942943e-05 4.9189136917e-05 2.8799107895e-05 6.3936138758e-05 5.0710994401e-05
          4.125171472e-05 7.321130397e-05 4.8280391638e-05 3.0648050597e-05 6.3278996095e-05 4.9722628319e-05
          4.0399037971e-05 7.5855088653e-05 5.1186292694e-05 2.9766863008e-05 6.2471786805e-05 5.20343674e-05
          4.3487540097e-05 7.5906347774e-05 4.8926078307e-05 4.3354702939e-05 7.4275209045e-05 4.957829151e-05
          4.1649484047e-05 7.4006449722e-05 4.7648452892e-05 2.9384984373e-05 6.5074440499e-05 5.1935134252e-05
          5.284589497e-05 4.5671178668e-05 4.6900760935e-05 2.94449801e-05 6.2942577642e-05 5.1466315199e-05
          2.9433649615e-05 6.0984977608e-05 4.876696039e-05 4.267670738e-05 7.5074567576e-05 4.7932640882e-05
          4.387844092e-05 7.4144882092e-05 4.8184498155e-05 5.2037277783e-05 4.5511675125e-05 4.94021333e-05
          5.1888317103e-05 4.6476714488e-05 5.0584068958e-05 4.1365910874e-05 7.3671493737e-05 4.9466591008e-05