NUFEB Simulation 

       10 atoms 
       1 atom types 

   0   3e-04  xlo xhi 
   0   1e-04  ylo yhi 
   0   1e-04  zlo zhi 

 Atoms 

1	1	1.00E-06	150	0.0002183192	0.0001785726	5.00E-05	1.00E-06
2	1	1.00E-06	150	0.0002479338	0.0001265901	5.00E-05	1.00E-06
3	1	1.00E-06	150	0.0001385542	0.0001617932	5.00E-05	1.00E-06
4	1	1.00E-06	150	0.0001079921	0.00015151718	5.00E-05	1.00E-06
5	1	1.00E-06	150	4.1951E-05	0.0001745099	5.00E-05	1.00E-06
6	1	1.00E-06	150	2.9684E-05	0.0001630332	5.00E-05	1.00E-06
7	1	1.00E-06	150	0.0001007964	0.0001755696	5.00E-05	1.00E-06
8	1	1.00E-06	150	5.28122E-05	0.00014646666	5.00E-05	1.00E-06
9	1	1.00E-06	150	7.57909E-05	0.0001288792	5.00E-05	1.00E-06
10	1	1.00E-06	150	0.0002209394	0.0001607025	5.00E-05	1.00E-06
